
             +---------------------------------------------------+
             |                                                   |
             |                   WANNIER90                       |
             |                                                   |
             +---------------------------------------------------+
             |                                                   |
             |        Welcome to the Maximally-Localized         |
             |        Generalized Wannier Functions code         |
             |            http://www.wannier.org                 |
             |                                                   |
             |                                                   |
             |  Wannier90 Developer Group:                       |
             |    Giovanni Pizzi    (EPFL)                       |
             |    Valerio Vitale    (Cambridge)                  |
             |    David Vanderbilt  (Rutgers University)         |
             |    Nicola Marzari    (EPFL)                       |
             |    Ivo Souza         (Universidad del Pais Vasco) |
             |    Arash A. Mostofi  (Imperial College London)    |
             |    Jonathan R. Yates (University of Oxford)       |
             |                                                   |
             |  For the full list of Wannier90 3.x authors,      |
             |  please check the code documentation and the      |
             |  README on the GitHub page of the code            |
             |                                                   |
             |                                                   |
             |  Please cite                                      |
             |                                                   |
             |  [ref] "Wannier90 as a community code:            |
             |        new features and applications",            |
             |        G. Pizzi et al., J. Phys. Cond. Matt. 32,  |
             |        165902 (2020).                             |
             |        http://doi.org/10.1088/1361-648X/ab51ff    |
             |                                                   |
             |  in any publications arising from the use of      |
             |  this code. For the method please cite            |
             |                                                   |
             |  [ref] "Maximally Localized Generalised Wannier   |
             |         Functions for Composite Energy Bands"     |
             |         N. Marzari and D. Vanderbilt              |
             |         Phys. Rev. B 56 12847 (1997)              |
             |                                                   |
             |  [ref] "Maximally Localized Wannier Functions     |
             |         for Entangled Energy Bands"               |
             |         I. Souza, N. Marzari and D. Vanderbilt    |
             |         Phys. Rev. B 65 035109 (2001)             |
             |                                                   |
             |                                                   |
             | Copyright (c) 1996-2020                           |
             |        The Wannier90 Developer Group and          |
             |        individual contributors                    |
             |                                                   |
             |      Release: 3.1.0        5th March    2020      |
             |                                                   |
             | This program is free software; you can            |
             | redistribute it and/or modify it under the terms  |
             | of the GNU General Public License as published by |
             | the Free Software Foundation; either version 2 of |
             | the License, or (at your option) any later version|
             |                                                   |
             | This program is distributed in the hope that it   |
             | will be useful, but WITHOUT ANY WARRANTY; without |
             | even the implied warranty of MERCHANTABILITY or   |
             | FITNESS FOR A PARTICULAR PURPOSE. See the GNU     |
             | General Public License for more details.          |
             |                                                   |
             | You should have received a copy of the GNU General|
             | Public License along with this program; if not,   |
             | write to the Free Software Foundation, Inc.,      |
             | 675 Mass Ave, Cambridge, MA 02139, USA.           |
             |                                                   |
             +---------------------------------------------------+
             |    Execution started on 20Mar2020 at 07:08:30     |
             +---------------------------------------------------+
 
 ******************************************************************************
 * -> Using CODATA 2006 constant values                                       *
 *    (http://physics.nist.gov/cuu/Constants/index.html)                      *
 * -> Using Bohr value from CODATA                                            *
 ******************************************************************************
 

 Running in serial (with parallel executable)

                                    ------
                                    SYSTEM
                                    ------

                              Lattice Vectors (Ang)
                    a_1    -1.805023   0.000000   1.805023
                    a_2     0.000000   1.805023   1.805023
                    a_3    -1.805023   1.805023   0.000000

                   Unit Cell Volume:      11.76193  (Ang^3)

                        Reciprocal-Space Vectors (Ang^-1)
                    b_1    -1.740472  -1.740472   1.740472
                    b_2     1.740472   1.740472   1.740472
                    b_3    -1.740472   1.740472  -1.740472
  
 *----------------------------------------------------------------------------*
 |   Site       Fractional Coordinate          Cartesian Coordinate (Ang)     |
 +----------------------------------------------------------------------------+
 | Cu   1   0.00000   0.00000   0.00000   |    0.00000   0.00000   0.00000    |
 *----------------------------------------------------------------------------*
                                ------------
                                K-POINT GRID
                                ------------
  
             Grid size =  8 x  8 x  8      Total points =  512
  
  
 *---------------------------------- MAIN ------------------------------------*
 |  Number of Wannier Functions               :                 6             |
 |  Number of Objective Wannier Functions     :                 6             |
 |  Number of input Bloch states              :                10             |
 |  Output verbosity (1=low, 5=high)          :                 1             |
 |  Timing Level (1=low, 5=high)              :                 1             |
 |  Optimisation (0=memory, 3=speed)          :                 3             |
 |  Length Unit                               :               Ang             |
 |  Post-processing setup (write *.nnkp)      :                 F             |
 |  Using Gamma-only branch of algorithms     :                 F             |
 |  Using symmetry-adapted WF mode            :                 T             |
 |  Tolerance for symmetry condition on U     :         0.100E-08             |
 |  Wavefunction (UNK) file-type              :       unformatted             |
 |  Wavefunction spin channel                 :                up             |
 *----------------------------------------------------------------------------*
 *------------------------------- WANNIERISE ---------------------------------*
 |  Total number of iterations                :               100             |
 |  Number of CG steps before reset           :                 5             |
 |  Trial step length for line search         :             2.000             |
 |  Convergence tolerence                     :         0.100E-09             |
 |  Convergence window                        :                -1             |
 |  Iterations between writing output         :                 1             |
 |  Iterations between backing up to disk     :               100             |
 |  Write r^2_nm to file                      :                 F             |
 |  Write xyz WF centres to file              :                 F             |
 |  Write on-site energies <0n|H|0n> to file  :                 F             |
 |  Use guiding centre to control phases      :                 F             |
 |  Use phases for initial projections        :                 F             |
 *----------------------------------------------------------------------------*
 *------------------------------- DISENTANGLE --------------------------------*
 |  Using band disentanglement                :                 T             |
 |  Total number of iterations                :               200             |
 |  Mixing ratio                              :             0.500             |
 |  Convergence tolerence                     :         1.000E-10             |
 |  Convergence window                        :                 3             |
 *----------------------------------------------------------------------------*
 *-------------------------------- PLOTTING ----------------------------------*
 |  Plotting Wannier functions                :                 T             |
 |   Size of supercell for plotting           :     3x    3x    3             |
 |   Plotting mode (molecule or crystal)      :           crystal             |
 |   Plotting format                          :          xcrysden             |
 *----------------------------------------------------------------------------*
 |  Plotting interpolated bandstructure       :                 T             |
 |   Number of K-path sections                :                 6             |
 |   Divisions along first K-path section     :               100             |
 |   Output format                            :           gnuplot             |
 |   Output mode                              :               s-k             |
 *----------------------------------------------------------------------------*
 |   K-space path sections:                                                   |
 |    From: L       0.500  0.500  0.500     To: G       0.000  0.000  0.000   |
 |    From: G       0.000  0.000  0.000     To: X       0.500  0.000  0.500   |
 |    From: X       0.500  0.000  0.500     To: W       0.500  0.250  0.750   |
 |    From: W       0.500  0.250  0.750     To: L       0.500  0.500  0.500   |
 |    From: L       0.500  0.500  0.500     To: K       0.750  0.375  0.375   |
 |    From: K       0.750  0.375  0.375     To: G       0.000  0.000  0.000   |
 *----------------------------------------------------------------------------*
 |  Plotting Hamiltonian in WF basis          :                 T             |
 *----------------------------------------------------------------------------*
 Time to read parameters        0.044 (sec)

 *---------------------------------- K-MESH ----------------------------------*
 +----------------------------------------------------------------------------+
 |                    Distance to Nearest-Neighbour Shells                    |
 |                    ------------------------------------                    |
 |          Shell             Distance (Ang^-1)          Multiplicity         |
 |          -----             -----------------          ------------         |
 |             1                   0.376823                      8            |
 |             2                   0.435118                      6            |
 |             3                   0.615350                     12            |
 |             4                   0.721562                     24            |
 |             5                   0.753646                      8            |
 |             6                   0.870236                      6            |
 |             7                   0.948318                     24            |
 |             8                   0.972953                     24            |
 |             9                   1.065817                     24            |
 |            10                   1.130470                     32            |
 |            11                   1.230700                     12            |
 |            12                   1.287096                     48            |
 |            13                   1.305354                     30            |
 |            14                   1.375964                     24            |
 |            15                   1.426630                     24            |
 |            16                   1.443123                     24            |
 |            17                   1.507293                      8            |
 |            18                   1.553682                     48            |
 |            19                   1.568840                     24            |
 |            20                   1.628062                     48            |
 |            21                   1.671102                     72            |
 |            22                   1.740472                      6            |
 |            23                   1.780797                     24            |
 |            24                   1.794037                     48            |
 |            25                   1.846049                     36            |
 |            26                   1.884116                     56            |
 |            27                   1.896635                     24            |
 |            28                   1.945907                     24            |
 |            29                   1.982057                     72            |
 |            30                   1.993961                     48            |
 |            31                   2.040884                     24            |
 |            32                   2.075380                     48            |
 |            33                   2.131634                     24            |
 |            34                   2.164685                     72            |
 |            35                   2.175590                     30            |
 |            36                   2.218675                     72            |
 +----------------------------------------------------------------------------+
 | The b-vectors are chosen automatically                                     |
 | The following shells are used:   1                                         |
 +----------------------------------------------------------------------------+
 |                        Shell   # Nearest-Neighbours                        |
 |                        -----   --------------------                        |
 |                          1               8                                 |
 +----------------------------------------------------------------------------+
 | Completeness relation is fully satisfied [Eq. (B1), PRB 56, 12847 (1997)]  |
 +----------------------------------------------------------------------------+
 |                  b_k Vectors (Ang^-1) and Weights (Ang^2)                  |
 |                  ----------------------------------------                  |
 |            No.         b_k(x)      b_k(y)      b_k(z)        w_b           |
 |            ---        --------------------------------     --------        |
 |             1         0.217559    0.217559    0.217559     2.640924        |
 |             2        -0.217559   -0.217559    0.217559     2.640924        |
 |             3        -0.217559    0.217559   -0.217559     2.640924        |
 |             4        -0.217559    0.217559    0.217559     2.640924        |
 |             5         0.217559   -0.217559    0.217559     2.640924        |
 |             6        -0.217559   -0.217559   -0.217559     2.640924        |
 |             7         0.217559    0.217559   -0.217559     2.640924        |
 |             8         0.217559   -0.217559   -0.217559     2.640924        |
 +----------------------------------------------------------------------------+
 |                           b_k Directions (Ang^-1)                          |
 |                           -----------------------                          |
 |            No.           x           y           z                         |
 |            ---        --------------------------------                     |
 |             1         0.217559    0.217559    0.217559                     |
 |             2        -0.217559   -0.217559    0.217559                     |
 |             3        -0.217559    0.217559   -0.217559                     |
 |             4        -0.217559    0.217559    0.217559                     |
 +----------------------------------------------------------------------------+
  
 Time to get kmesh              2.482 (sec)
 *============================================================================*
 |                              MEMORY ESTIMATE                               |
 |         Maximum RAM allocated during each phase of the calculation         |
 *============================================================================*
 |                        Disentanglement           10.04 Mb                  |
 |                            Wannierise:            7.27 Mb                  |
 |                          plot_wannier:            7.27 Mb                  |
 *----------------------------------------------------------------------------*
  
 Starting a new Wannier90 calculation ...


 Reading overlaps from Cu.mmn    :  Created on 20Mar2020 at  7: 7:26

 Reading projections from Cu.amn :  Created on 20Mar2020 at  7: 6:50

 Time to read overlaps          0.763 (sec)

 *------------------------------- DISENTANGLE --------------------------------*
 +----------------------------------------------------------------------------+
 |                              Energy  Windows                               |
 |                              ---------------                               |
 |                   Outer:    4.68900  to   24.68900  (eV)                   |
 |                   No frozen states were specified                          |
 +----------------------------------------------------------------------------+
   Number of target bands to extract:    6

                   Unitarised projection of Wannier functions                  
                   ------------------------------------------                  
   A_mn = <psi_m|g_n> --> S = A.A^+ --> U = S^-1/2.A
   In dis_project... done
   No inner window (linner = F)

                   Extraction of optimally-connected subspace                  
                   ------------------------------------------                  
 +---------------------------------------------------------------------+<-- DIS
 |  Iter     Omega_I(i-1)      Omega_I(i)      Delta (frac.)    Time   |<-- DIS
 +---------------------------------------------------------------------+<-- DIS
       1       4.19691601       4.05539315       3.490E-02      0.00    <-- DIS
       2       4.12211154       4.02753558       2.348E-02      0.03    <-- DIS
       3       4.07253344       4.01097367       1.535E-02      0.06    <-- DIS
       4       4.04023303       3.99983126       1.010E-02      0.09    <-- DIS
       5       4.01896714       3.99194785       6.768E-03      0.12    <-- DIS
       6       4.00467844       3.98612653       4.654E-03      0.15    <-- DIS
       7       3.99480931       3.98165550       3.304E-03      0.18    <-- DIS
       8       3.98776416       3.97809905       2.430E-03      0.21    <-- DIS
       9       3.98255032       3.97518441       1.853E-03      0.24    <-- DIS
      10       3.97854885       3.97273703       1.463E-03      0.27    <-- DIS
      11       3.97537144       3.97064261       1.191E-03      0.30    <-- DIS
      12       3.97277203       3.96882432       9.947E-04      0.32    <-- DIS
      13       3.97059243       3.96722893       8.478E-04      0.35    <-- DIS
      14       3.96872906       3.96581832       7.340E-04      0.38    <-- DIS
      15       3.96711240       3.96456424       6.427E-04      0.41    <-- DIS
      16       3.96569449       3.96344500       5.676E-04      0.44    <-- DIS
      17       3.96444110       3.96244337       5.042E-04      0.47    <-- DIS
      18       3.96332693       3.96154529       4.497E-04      0.51    <-- DIS
      19       3.96233262       3.96073897       4.024E-04      0.54    <-- DIS
      20       3.96144281       3.96001436       3.607E-04      0.57    <-- DIS
      21       3.96064498       3.95936274       3.238E-04      0.60    <-- DIS
      22       3.95992865       3.95877649       2.910E-04      0.63    <-- DIS
      23       3.95928488       3.95824887       2.617E-04      0.66    <-- DIS
      24       3.95870594       3.95777389       2.355E-04      0.69    <-- DIS
      25       3.95818506       3.95734621       2.120E-04      0.72    <-- DIS
      26       3.95771623       3.95696108       1.908E-04      0.75    <-- DIS
      27       3.95729416       3.95661420       1.719E-04      0.78    <-- DIS
      28       3.95691411       3.95630176       1.548E-04      0.81    <-- DIS
      29       3.95657183       3.95602030       1.394E-04      0.83    <-- DIS
      30       3.95626355       3.95576674       1.256E-04      0.86    <-- DIS
      31       3.95598584       3.95553829       1.131E-04      0.89    <-- DIS
      32       3.95573567       3.95533245       1.019E-04      0.92    <-- DIS
      33       3.95551027       3.95514698       9.185E-05      0.95    <-- DIS
      34       3.95530719       3.95497984       8.277E-05      0.98    <-- DIS
      35       3.95512420       3.95482921       7.459E-05      1.00    <-- DIS
      36       3.95495930       3.95469347       6.722E-05      1.03    <-- DIS
      37       3.95481069       3.95457112       6.058E-05      1.06    <-- DIS
      38       3.95467676       3.95446085       5.460E-05      1.09    <-- DIS
      39       3.95455606       3.95436145       4.921E-05      1.12    <-- DIS
      40       3.95444726       3.95427185       4.436E-05      1.15    <-- DIS
      41       3.95434920       3.95419108       3.999E-05      1.18    <-- DIS
      42       3.95426080       3.95411826       3.605E-05      1.21    <-- DIS
      43       3.95418111       3.95405262       3.250E-05      1.24    <-- DIS
      44       3.95410928       3.95399344       2.930E-05      1.27    <-- DIS
      45       3.95404452       3.95394008       2.641E-05      1.30    <-- DIS
      46       3.95398613       3.95389197       2.381E-05      1.33    <-- DIS
      47       3.95393349       3.95384859       2.147E-05      1.36    <-- DIS
      48       3.95388602       3.95380948       1.936E-05      1.39    <-- DIS
      49       3.95384323       3.95377421       1.746E-05      1.42    <-- DIS
      50       3.95380464       3.95374240       1.574E-05      1.44    <-- DIS
      51       3.95376984       3.95371372       1.419E-05      1.48    <-- DIS
      52       3.95373846       3.95368786       1.280E-05      1.51    <-- DIS
      53       3.95371017       3.95366453       1.154E-05      1.54    <-- DIS
      54       3.95368465       3.95364350       1.041E-05      1.57    <-- DIS
      55       3.95366164       3.95362452       9.388E-06      1.59    <-- DIS
      56       3.95364089       3.95360741       8.467E-06      1.62    <-- DIS
      57       3.95362217       3.95359198       7.636E-06      1.65    <-- DIS
      58       3.95360529       3.95357806       6.887E-06      1.68    <-- DIS
      59       3.95359007       3.95356551       6.212E-06      1.71    <-- DIS
      60       3.95357634       3.95355419       5.602E-06      1.75    <-- DIS
      61       3.95356395       3.95354398       5.053E-06      1.78    <-- DIS
      62       3.95355278       3.95353476       4.558E-06      1.81    <-- DIS
      63       3.95354271       3.95352646       4.111E-06      1.84    <-- DIS
      64       3.95353362       3.95351896       3.708E-06      1.87    <-- DIS
      65       3.95352542       3.95351220       3.345E-06      1.90    <-- DIS
      66       3.95351803       3.95350610       3.017E-06      1.93    <-- DIS
      67       3.95351136       3.95350060       2.721E-06      1.96    <-- DIS
      68       3.95350534       3.95349564       2.455E-06      1.99    <-- DIS
      69       3.95349992       3.95349116       2.214E-06      2.02    <-- DIS
      70       3.95349502       3.95348713       1.998E-06      2.05    <-- DIS
      71       3.95349061       3.95348348       1.802E-06      2.07    <-- DIS
      72       3.95348662       3.95348020       1.626E-06      2.10    <-- DIS
      73       3.95348303       3.95347723       1.466E-06      2.13    <-- DIS
      74       3.95347979       3.95347456       1.323E-06      2.16    <-- DIS
      75       3.95347686       3.95347215       1.193E-06      2.19    <-- DIS
      76       3.95347423       3.95346997       1.076E-06      2.22    <-- DIS
      77       3.95347185       3.95346801       9.711E-07      2.25    <-- DIS
      78       3.95346970       3.95346624       8.761E-07      2.27    <-- DIS
      79       3.95346776       3.95346464       7.903E-07      2.30    <-- DIS
      80       3.95346602       3.95346320       7.130E-07      2.34    <-- DIS
      81       3.95346444       3.95346190       6.432E-07      2.37    <-- DIS
      82       3.95346302       3.95346072       5.803E-07      2.40    <-- DIS
      83       3.95346174       3.95345967       5.235E-07      2.43    <-- DIS
      84       3.95346058       3.95345871       4.723E-07      2.47    <-- DIS
      85       3.95345953       3.95345785       4.261E-07      2.50    <-- DIS
      86       3.95345859       3.95345707       3.844E-07      2.53    <-- DIS
      87       3.95345774       3.95345637       3.468E-07      2.56    <-- DIS
      88       3.95345698       3.95345574       3.128E-07      2.59    <-- DIS
      89       3.95345628       3.95345517       2.822E-07      2.62    <-- DIS
      90       3.95345566       3.95345465       2.546E-07      2.65    <-- DIS
      91       3.95345510       3.95345419       2.297E-07      2.68    <-- DIS
      92       3.95345459       3.95345377       2.073E-07      2.71    <-- DIS
      93       3.95345413       3.95345339       1.870E-07      2.74    <-- DIS
      94       3.95345372       3.95345305       1.687E-07      2.77    <-- DIS
      95       3.95345334       3.95345274       1.522E-07      2.80    <-- DIS
      96       3.95345301       3.95345247       1.373E-07      2.83    <-- DIS
      97       3.95345270       3.95345221       1.239E-07      2.86    <-- DIS
      98       3.95345243       3.95345199       1.118E-07      2.89    <-- DIS
      99       3.95345218       3.95345178       1.008E-07      2.92    <-- DIS
     100       3.95345196       3.95345160       9.095E-08      2.95    <-- DIS
     101       3.95345176       3.95345143       8.206E-08      2.99    <-- DIS
     102       3.95345158       3.95345129       7.403E-08      3.02    <-- DIS
     103       3.95345141       3.95345115       6.679E-08      3.05    <-- DIS
     104       3.95345127       3.95345103       6.025E-08      3.08    <-- DIS
     105       3.95345113       3.95345092       5.436E-08      3.10    <-- DIS
     106       3.95345101       3.95345082       4.904E-08      3.13    <-- DIS
     107       3.95345090       3.95345073       4.424E-08      3.16    <-- DIS
     108       3.95345081       3.95345065       3.991E-08      3.19    <-- DIS
     109       3.95345072       3.95345058       3.600E-08      3.22    <-- DIS
     110       3.95345064       3.95345051       3.248E-08      3.25    <-- DIS
     111       3.95345057       3.95345045       2.930E-08      3.28    <-- DIS
     112       3.95345050       3.95345040       2.643E-08      3.31    <-- DIS
     113       3.95345044       3.95345035       2.385E-08      3.34    <-- DIS
     114       3.95345039       3.95345031       2.151E-08      3.36    <-- DIS
     115       3.95345034       3.95345027       1.940E-08      3.39    <-- DIS
     116       3.95345030       3.95345023       1.750E-08      3.42    <-- DIS
     117       3.95345026       3.95345020       1.579E-08      3.45    <-- DIS
     118       3.95345023       3.95345017       1.424E-08      3.49    <-- DIS
     119       3.95345019       3.95345014       1.285E-08      3.52    <-- DIS
     120       3.95345017       3.95345012       1.159E-08      3.56    <-- DIS
     121       3.95345014       3.95345010       1.045E-08      3.59    <-- DIS
     122       3.95345012       3.95345008       9.427E-09      3.61    <-- DIS
     123       3.95345010       3.95345006       8.501E-09      3.64    <-- DIS
     124       3.95345008       3.95345005       7.666E-09      3.67    <-- DIS
     125       3.95345006       3.95345003       6.912E-09      3.70    <-- DIS
     126       3.95345004       3.95345002       6.232E-09      3.73    <-- DIS
     127       3.95345003       3.95345001       5.620E-09      3.76    <-- DIS
     128       3.95345002       3.95345000       5.066E-09      3.79    <-- DIS
     129       3.95345001       3.95344999       4.566E-09      3.81    <-- DIS
     130       3.95345000       3.95344998       4.116E-09      3.85    <-- DIS
     131       3.95344999       3.95344997       3.711E-09      3.87    <-- DIS
     132       3.95344998       3.95344997       3.345E-09      3.90    <-- DIS
     133       3.95344997       3.95344996       3.015E-09      3.93    <-- DIS
     134       3.95344997       3.95344995       2.717E-09      3.96    <-- DIS
     135       3.95344996       3.95344995       2.448E-09      3.98    <-- DIS
     136       3.95344995       3.95344995       2.205E-09      4.01    <-- DIS
     137       3.95344995       3.95344994       1.986E-09      4.04    <-- DIS
     138       3.95344994       3.95344994       1.789E-09      4.07    <-- DIS
     139       3.95344994       3.95344993       1.611E-09      4.10    <-- DIS
     140       3.95344994       3.95344993       1.450E-09      4.14    <-- DIS
     141       3.95344993       3.95344993       1.305E-09      4.17    <-- DIS
     142       3.95344993       3.95344993       1.174E-09      4.20    <-- DIS
     143       3.95344993       3.95344992       1.056E-09      4.23    <-- DIS
     144       3.95344993       3.95344992       9.491E-10      4.26    <-- DIS
     145       3.95344992       3.95344992       8.528E-10      4.29    <-- DIS
     146       3.95344992       3.95344992       7.659E-10      4.32    <-- DIS
     147       3.95344992       3.95344992       6.875E-10      4.35    <-- DIS
     148       3.95344992       3.95344992       6.167E-10      4.38    <-- DIS
     149       3.95344992       3.95344991       5.530E-10      4.40    <-- DIS
     150       3.95344992       3.95344991       4.954E-10      4.44    <-- DIS
     151       3.95344991       3.95344991       4.436E-10      4.47    <-- DIS
     152       3.95344991       3.95344991       3.967E-10      4.51    <-- DIS
     153       3.95344991       3.95344991       3.545E-10      4.54    <-- DIS
     154       3.95344991       3.95344991       3.164E-10      4.57    <-- DIS
     155       3.95344991       3.95344991       2.820E-10      4.60    <-- DIS
     156       3.95344991       3.95344991       2.510E-10      4.62    <-- DIS
     157       3.95344991       3.95344991       2.229E-10      4.65    <-- DIS
     158       3.95344991       3.95344991       1.977E-10      4.68    <-- DIS
     159       3.95344991       3.95344991       1.748E-10      4.71    <-- DIS
     160       3.95344991       3.95344991       1.543E-10      4.75    <-- DIS
     161       3.95344991       3.95344991       1.357E-10      4.78    <-- DIS
     162       3.95344991       3.95344991       1.190E-10      4.81    <-- DIS
     163       3.95344991       3.95344991       1.038E-10      4.84    <-- DIS
     164       3.95344991       3.95344991       9.019E-11      4.87    <-- DIS
     165       3.95344991       3.95344991       7.788E-11      4.90    <-- DIS
     166       3.95344991       3.95344991       6.676E-11      4.93    <-- DIS

             <<<      Delta < 1.000E-10  over  3 iterations     >>>
             <<< Disentanglement convergence criteria satisfied >>>

        Final Omega_I     3.95344991 (Ang^2)

 +----------------------------------------------------------------------------+

 Time to disentangle bands      4.989 (sec)

 Writing checkpoint file Cu.chk... done


 *------------------------------- WANNIERISE ---------------------------------*
 +--------------------------------------------------------------------+<-- CONV
 | Iter  Delta Spread     RMS Gradient      Spread (Ang^2)      Time  |<-- CONV
 +--------------------------------------------------------------------+<-- CONV

 ------------------------------------------------------------------------------
 Initial State
  WF centre and spread    1  ( -0.902512,  0.902512,  0.902512 )     2.20529057
  WF centre and spread    2  ( -0.000000, -0.000000, -0.000000 )     0.44852805
  WF centre and spread    3  ( -0.000000,  0.000000,  0.000000 )     0.45536864
  WF centre and spread    4  (  0.000000,  0.000000,  0.000000 )     0.45536864
  WF centre and spread    5  (  0.000000,  0.000000,  0.000000 )     0.44852808
  WF centre and spread    6  ( -0.000000,  0.000000, -0.000000 )     0.45536861
  Sum of centres and spreads ( -0.902512,  0.902512,  0.902512 )     4.46845260

      0     0.447E+01     0.0000000000        4.4684526016       4.98  <-- CONV
        O_D=      0.0836044 O_OD=      0.4313983 O_TOT=      4.4684526 <-- SPRD
 ------------------------------------------------------------------------------
 Cycle:      1
  WF centre and spread    1  ( -0.902512,  0.902512,  0.902512 )     2.15845639
  WF centre and spread    2  ( -0.000000, -0.000000, -0.000000 )     0.44703863
  WF centre and spread    3  ( -0.000000,  0.000000,  0.000000 )     0.45707634
  WF centre and spread    4  (  0.000000,  0.000000,  0.000000 )     0.45707634
  WF centre and spread    5  (  0.000000,  0.000000,  0.000000 )     0.44703865
  WF centre and spread    6  (  0.000000,  0.000000, -0.000000 )     0.45707631
  Sum of centres and spreads ( -0.902512,  0.902512,  0.902512 )     4.42376267

      1    -0.447E-01     0.2973821456        4.4237626704       5.02  <-- CONV
        O_D=      0.0774095 O_OD=      0.3929033 O_TOT=      4.4237627 <-- SPRD
 Delta: O_D= -0.6194876E-02 O_OD= -0.3849506E-01 O_TOT= -0.4468993E-01 <-- DLTA
 ------------------------------------------------------------------------------
 Cycle:      2
  WF centre and spread    1  ( -0.902512,  0.902512,  0.902512 )     2.10993051
  WF centre and spread    2  ( -0.000000, -0.000000, -0.000000 )     0.44715822
  WF centre and spread    3  ( -0.000000,  0.000000,  0.000000 )     0.46091737
  WF centre and spread    4  (  0.000000,  0.000000,  0.000000 )     0.46091737
  WF centre and spread    5  (  0.000000,  0.000000,  0.000000 )     0.44715823
  WF centre and spread    6  (  0.000000,  0.000000, -0.000000 )     0.46091734
  Sum of centres and spreads ( -0.902512,  0.902512,  0.902512 )     4.38699904

      2    -0.368E-01     0.3370950664        4.3869990409       5.06  <-- CONV
        O_D=      0.0725712 O_OD=      0.3609779 O_TOT=      4.3869990 <-- SPRD
 Delta: O_D= -0.4838316E-02 O_OD= -0.3192531E-01 O_TOT= -0.3676363E-01 <-- DLTA
 ------------------------------------------------------------------------------
 Cycle:      3
  WF centre and spread    1  ( -0.902512,  0.902512,  0.902512 )     2.08247885
  WF centre and spread    2  ( -0.000000, -0.000000, -0.000000 )     0.44759435
  WF centre and spread    3  ( -0.000000,  0.000000,  0.000000 )     0.46406159
  WF centre and spread    4  (  0.000000,  0.000000,  0.000000 )     0.46406159
  WF centre and spread    5  (  0.000000,  0.000000,  0.000000 )     0.44759436
  WF centre and spread    6  (  0.000000,  0.000000, -0.000000 )     0.46406156
  Sum of centres and spreads ( -0.902512,  0.902512,  0.902512 )     4.36985230

      3    -0.171E-01     0.2532591988        4.3698522979       5.09  <-- CONV
        O_D=      0.0683123 O_OD=      0.3480901 O_TOT=      4.3698523 <-- SPRD
 Delta: O_D= -0.4258910E-02 O_OD= -0.1288783E-01 O_TOT= -0.1714674E-01 <-- DLTA
 ------------------------------------------------------------------------------
 Cycle:      4
  WF centre and spread    1  ( -0.902512,  0.902512,  0.902512 )     2.05792248
  WF centre and spread    2  ( -0.000000, -0.000000, -0.000000 )     0.44807335
  WF centre and spread    3  ( -0.000000,  0.000000,  0.000000 )     0.46791783
  WF centre and spread    4  (  0.000000,  0.000000,  0.000000 )     0.46791783
  WF centre and spread    5  (  0.000000,  0.000000,  0.000000 )     0.44807336
  WF centre and spread    6  (  0.000000,  0.000000, -0.000000 )     0.46791780
  Sum of centres and spreads ( -0.902512,  0.902512,  0.902512 )     4.35782265

      4    -0.120E-01     0.2139843528        4.3578226467       5.13  <-- CONV
        O_D=      0.0650868 O_OD=      0.3392859 O_TOT=      4.3578226 <-- SPRD
 Delta: O_D= -0.3225439E-02 O_OD= -0.8804213E-02 O_TOT= -0.1202965E-01 <-- DLTA
 ------------------------------------------------------------------------------
 Cycle:      5
  WF centre and spread    1  ( -0.902512,  0.902512,  0.902512 )     2.03073276
  WF centre and spread    2  ( -0.000000, -0.000000, -0.000000 )     0.44839018
  WF centre and spread    3  ( -0.000000,  0.000000,  0.000000 )     0.47324214
  WF centre and spread    4  (  0.000000,  0.000000,  0.000000 )     0.47324214
  WF centre and spread    5  (  0.000000,  0.000000,  0.000000 )     0.44839019
  WF centre and spread    6  (  0.000000,  0.000000, -0.000000 )     0.47324211
  Sum of centres and spreads ( -0.902512,  0.902512,  0.902512 )     4.34723952

      5    -0.106E-01     0.1867118784        4.3472395179       5.17  <-- CONV
        O_D=      0.0620210 O_OD=      0.3317686 O_TOT=      4.3472395 <-- SPRD
 Delta: O_D= -0.3065832E-02 O_OD= -0.7517297E-02 O_TOT= -0.1058313E-01 <-- DLTA
 ------------------------------------------------------------------------------
 Cycle:      6
  WF centre and spread    1  ( -0.902512,  0.902512,  0.902512 )     2.01104342
  WF centre and spread    2  ( -0.000000, -0.000000, -0.000000 )     0.44786609
  WF centre and spread    3  ( -0.000000,  0.000000,  0.000000 )     0.47784615
  WF centre and spread    4  (  0.000000,  0.000000,  0.000000 )     0.47784615
  WF centre and spread    5  (  0.000000,  0.000000,  0.000000 )     0.44786610
  WF centre and spread    6  (  0.000000,  0.000000, -0.000000 )     0.47784612
  Sum of centres and spreads ( -0.902512,  0.902512,  0.902512 )     4.34031402

      6    -0.693E-02     0.1495654005        4.3403140123       5.21  <-- CONV
        O_D=      0.0596416 O_OD=      0.3272225 O_TOT=      4.3403140 <-- SPRD
 Delta: O_D= -0.2379369E-02 O_OD= -0.4546137E-02 O_TOT= -0.6925506E-02 <-- DLTA
 ------------------------------------------------------------------------------
 Cycle:      7
  WF centre and spread    1  ( -0.902512,  0.902512,  0.902512 )     2.01039408
  WF centre and spread    2  ( -0.000000, -0.000000, -0.000000 )     0.44737959
  WF centre and spread    3  ( -0.000000,  0.000000,  0.000000 )     0.47735810
  WF centre and spread    4  (  0.000000,  0.000000,  0.000000 )     0.47735810
  WF centre and spread    5  (  0.000000,  0.000000,  0.000000 )     0.44737960
  WF centre and spread    6  (  0.000000,  0.000000, -0.000000 )     0.47735807
  Sum of centres and spreads ( -0.902512,  0.902512,  0.902512 )     4.33722755

      7    -0.309E-02     0.1334530275        4.3372275467       5.25  <-- CONV
        O_D=      0.0589244 O_OD=      0.3248533 O_TOT=      4.3372275 <-- SPRD
 Delta: O_D= -0.7172881E-03 O_OD= -0.2369177E-02 O_TOT= -0.3086466E-02 <-- DLTA
 ------------------------------------------------------------------------------
 Cycle:      8
  WF centre and spread    1  ( -0.902512,  0.902512,  0.902512 )     2.00913051
  WF centre and spread    2  ( -0.000000, -0.000000, -0.000000 )     0.44676377
  WF centre and spread    3  ( -0.000000,  0.000000,  0.000000 )     0.47737308
  WF centre and spread    4  (  0.000000,  0.000000,  0.000000 )     0.47737308
  WF centre and spread    5  (  0.000000,  0.000000,  0.000000 )     0.44676378
  WF centre and spread    6  (  0.000000,  0.000000, -0.000000 )     0.47737305
  Sum of centres and spreads ( -0.902512,  0.902512,  0.902512 )     4.33477725

      8    -0.245E-02     0.0932118855        4.3347772498       5.29  <-- CONV
        O_D=      0.0582250 O_OD=      0.3231024 O_TOT=      4.3347772 <-- SPRD
 Delta: O_D= -0.6993955E-03 O_OD= -0.1750901E-02 O_TOT= -0.2450297E-02 <-- DLTA
 ------------------------------------------------------------------------------
 Cycle:      9
  WF centre and spread    1  ( -0.902512,  0.902512,  0.902512 )     2.00603658
  WF centre and spread    2  ( -0.000000, -0.000000, -0.000000 )     0.44630329
  WF centre and spread    3  ( -0.000000,  0.000000,  0.000000 )     0.47807409
  WF centre and spread    4  (  0.000000,  0.000000,  0.000000 )     0.47807409
  WF centre and spread    5  (  0.000000,  0.000000,  0.000000 )     0.44630331
  WF centre and spread    6  (  0.000000,  0.000000, -0.000000 )     0.47807406
  Sum of centres and spreads ( -0.902512,  0.902512,  0.902512 )     4.33286543

      9    -0.191E-02     0.0807463066        4.3328654203       5.32  <-- CONV
        O_D=      0.0576974 O_OD=      0.3217182 O_TOT=      4.3328654 <-- SPRD
 Delta: O_D= -0.5276106E-03 O_OD= -0.1384219E-02 O_TOT= -0.1911830E-02 <-- DLTA
 ------------------------------------------------------------------------------
 Cycle:     10
  WF centre and spread    1  ( -0.902512,  0.902512,  0.902512 )     2.00204161
  WF centre and spread    2  ( -0.000000, -0.000000, -0.000000 )     0.44604632
  WF centre and spread    3  ( -0.000000,  0.000000,  0.000000 )     0.47918067
  WF centre and spread    4  (  0.000000,  0.000000,  0.000000 )     0.47918067
  WF centre and spread    5  (  0.000000,  0.000000,  0.000000 )     0.44604634
  WF centre and spread    6  (  0.000000,  0.000000, -0.000000 )     0.47918064
  Sum of centres and spreads ( -0.902512,  0.902512,  0.902512 )     4.33167625

     10    -0.119E-02     0.0649886454        4.3316762491       5.37  <-- CONV
        O_D=      0.0570315 O_OD=      0.3211948 O_TOT=      4.3316762 <-- SPRD
 Delta: O_D= -0.6658093E-03 O_OD= -0.5233619E-03 O_TOT= -0.1189171E-02 <-- DLTA
 ------------------------------------------------------------------------------
 Cycle:     11
  WF centre and spread    1  ( -0.902512,  0.902512,  0.902512 )     1.99801496
  WF centre and spread    2  ( -0.000000, -0.000000, -0.000000 )     0.44584503
  WF centre and spread    3  ( -0.000000,  0.000000,  0.000000 )     0.48036262
  WF centre and spread    4  (  0.000000,  0.000000,  0.000000 )     0.48036261
  WF centre and spread    5  (  0.000000,  0.000000,  0.000000 )     0.44584504
  WF centre and spread    6  (  0.000000,  0.000000, -0.000000 )     0.48036258
  Sum of centres and spreads ( -0.902512,  0.902512,  0.902512 )     4.33079285

     11    -0.883E-03     0.0539925293        4.3307928449       5.41  <-- CONV
        O_D=      0.0563799 O_OD=      0.3209631 O_TOT=      4.3307928 <-- SPRD
 Delta: O_D= -0.6516873E-03 O_OD= -0.2317169E-03 O_TOT= -0.8834042E-03 <-- DLTA
 ------------------------------------------------------------------------------
 Cycle:     12
  WF centre and spread    1  ( -0.902512,  0.902512,  0.902512 )     1.99487868
  WF centre and spread    2  ( -0.000000, -0.000000, -0.000000 )     0.44575964
  WF centre and spread    3  ( -0.000000,  0.000000,  0.000000 )     0.48130859
  WF centre and spread    4  (  0.000000,  0.000000,  0.000000 )     0.48130859
  WF centre and spread    5  (  0.000000,  0.000000,  0.000000 )     0.44575965
  WF centre and spread    6  (  0.000000,  0.000000, -0.000000 )     0.48130856
  Sum of centres and spreads ( -0.902512,  0.902512,  0.902512 )     4.33032372

     12    -0.469E-03     0.0445429669        4.3303237111       5.45  <-- CONV
        O_D=      0.0560645 O_OD=      0.3208093 O_TOT=      4.3303237 <-- SPRD
 Delta: O_D= -0.3153550E-03 O_OD= -0.1537788E-03 O_TOT= -0.4691338E-03 <-- DLTA
 ------------------------------------------------------------------------------
 Cycle:     13
  WF centre and spread    1  ( -0.902512,  0.902512,  0.902512 )     1.99374393
  WF centre and spread    2  ( -0.000000, -0.000000, -0.000000 )     0.44580088
  WF centre and spread    3  ( -0.000000,  0.000000,  0.000000 )     0.48159827
  WF centre and spread    4  (  0.000000,  0.000000,  0.000000 )     0.48159827
  WF centre and spread    5  (  0.000000,  0.000000,  0.000000 )     0.44580090
  WF centre and spread    6  (  0.000000,  0.000000, -0.000000 )     0.48159824
  Sum of centres and spreads ( -0.902512,  0.902512,  0.902512 )     4.33014050

     13    -0.183E-03     0.0313844134        4.3301404944       5.49  <-- CONV
        O_D=      0.0559738 O_OD=      0.3207168 O_TOT=      4.3301405 <-- SPRD
 Delta: O_D= -0.9067013E-04 O_OD= -0.9254656E-04 O_TOT= -0.1832167E-03 <-- DLTA
 ------------------------------------------------------------------------------
 Cycle:     14
  WF centre and spread    1  ( -0.902512,  0.902512,  0.902512 )     1.98992237
  WF centre and spread    2  ( -0.000000, -0.000000, -0.000000 )     0.44596760
  WF centre and spread    3  ( -0.000000,  0.000000,  0.000000 )     0.48265585
  WF centre and spread    4  (  0.000000,  0.000000,  0.000000 )     0.48265585
  WF centre and spread    5  (  0.000000,  0.000000,  0.000000 )     0.44596762
  WF centre and spread    6  (  0.000000,  0.000000, -0.000000 )     0.48265582
  Sum of centres and spreads ( -0.902512,  0.902512,  0.902512 )     4.32982510

     14    -0.315E-03     0.0272453250        4.3298250910       5.53  <-- CONV
        O_D=      0.0556937 O_OD=      0.3206815 O_TOT=      4.3298251 <-- SPRD
 Delta: O_D= -0.2801807E-03 O_OD= -0.3522269E-04 O_TOT= -0.3154034E-03 <-- DLTA
 ------------------------------------------------------------------------------
 Cycle:     15
  WF centre and spread    1  ( -0.902512,  0.902512,  0.902512 )     1.98738882
  WF centre and spread    2  ( -0.000000, -0.000000, -0.000000 )     0.44606272
  WF centre and spread    3  ( -0.000000,  0.000000,  0.000000 )     0.48337871
  WF centre and spread    4  (  0.000000,  0.000000,  0.000000 )     0.48337871
  WF centre and spread    5  (  0.000000,  0.000000,  0.000000 )     0.44606273
  WF centre and spread    6  (  0.000000,  0.000000, -0.000000 )     0.48337868
  Sum of centres and spreads ( -0.902512,  0.902512,  0.902512 )     4.32965039

     15    -0.175E-03     0.0278647796        4.3296503774       5.57  <-- CONV
        O_D=      0.0554756 O_OD=      0.3207248 O_TOT=      4.3296504 <-- SPRD
 Delta: O_D= -0.2180208E-03 O_OD=  0.4330715E-04 O_TOT= -0.1747136E-03 <-- DLTA
 ------------------------------------------------------------------------------
 Cycle:     16
  WF centre and spread    1  ( -0.902512,  0.902512,  0.902512 )     1.98483764
  WF centre and spread    2  ( -0.000000, -0.000000, -0.000000 )     0.44612989
  WF centre and spread    3  ( -0.000000,  0.000000,  0.000000 )     0.48413697
  WF centre and spread    4  (  0.000000,  0.000000,  0.000000 )     0.48413697
  WF centre and spread    5  (  0.000000,  0.000000,  0.000000 )     0.44612990
  WF centre and spread    6  (  0.000000,  0.000000, -0.000000 )     0.48413694
  Sum of centres and spreads ( -0.902512,  0.902512,  0.902512 )     4.32950832

     16    -0.142E-03     0.0228123403        4.3295083089       5.61  <-- CONV
        O_D=      0.0552088 O_OD=      0.3208496 O_TOT=      4.3295083 <-- SPRD
 Delta: O_D= -0.2668744E-03 O_OD=  0.1248060E-03 O_TOT= -0.1420685E-03 <-- DLTA
 ------------------------------------------------------------------------------
 Cycle:     17
  WF centre and spread    1  ( -0.902512,  0.902512,  0.902512 )     1.98299727
  WF centre and spread    2  ( -0.000000, -0.000000, -0.000000 )     0.44616136
  WF centre and spread    3  ( -0.000000,  0.000000,  0.000000 )     0.48470277
  WF centre and spread    4  (  0.000000,  0.000000,  0.000000 )     0.48470277
  WF centre and spread    5  (  0.000000,  0.000000,  0.000000 )     0.44616137
  WF centre and spread    6  (  0.000000,  0.000000, -0.000000 )     0.48470274
  Sum of centres and spreads ( -0.902512,  0.902512,  0.902512 )     4.32942828

     17    -0.800E-04     0.0194944754        4.3294282692       5.65  <-- CONV
        O_D=      0.0550059 O_OD=      0.3209725 O_TOT=      4.3294283 <-- SPRD
 Delta: O_D= -0.2028809E-03 O_OD=  0.1228412E-03 O_TOT= -0.8003965E-04 <-- DLTA
 ------------------------------------------------------------------------------
 Cycle:     18
  WF centre and spread    1  ( -0.902512,  0.902512,  0.902512 )     1.98130938
  WF centre and spread    2  ( -0.000000, -0.000000, -0.000000 )     0.44616603
  WF centre and spread    3  ( -0.000000,  0.000000,  0.000000 )     0.48524301
  WF centre and spread    4  (  0.000000,  0.000000,  0.000000 )     0.48524301
  WF centre and spread    5  (  0.000000,  0.000000,  0.000000 )     0.44616605
  WF centre and spread    6  (  0.000000,  0.000000, -0.000000 )     0.48524298
  Sum of centres and spreads ( -0.902512,  0.902512,  0.902512 )     4.32937046

     18    -0.578E-04     0.0141384810        4.3293704484       5.69  <-- CONV
        O_D=      0.0547983 O_OD=      0.3211222 O_TOT=      4.3293704 <-- SPRD
 Delta: O_D= -0.2075347E-03 O_OD=  0.1497138E-03 O_TOT= -0.5782085E-04 <-- DLTA
 ------------------------------------------------------------------------------
 Cycle:     19
  WF centre and spread    1  ( -0.902512,  0.902512,  0.902512 )     1.98129279
  WF centre and spread    2  ( -0.000000, -0.000000, -0.000000 )     0.44614185
  WF centre and spread    3  ( -0.000000,  0.000000,  0.000000 )     0.48525482
  WF centre and spread    4  (  0.000000,  0.000000,  0.000000 )     0.48525482
  WF centre and spread    5  (  0.000000,  0.000000,  0.000000 )     0.44614186
  WF centre and spread    6  (  0.000000,  0.000000, -0.000000 )     0.48525479
  Sum of centres and spreads ( -0.902512,  0.902512,  0.902512 )     4.32934095

     19    -0.295E-04     0.0127097690        4.3293409352       5.72  <-- CONV
        O_D=      0.0547672 O_OD=      0.3211238 O_TOT=      4.3293409 <-- SPRD
 Delta: O_D= -0.3111101E-04 O_OD=  0.1597806E-05 O_TOT= -0.2951320E-04 <-- DLTA
 ------------------------------------------------------------------------------
 Cycle:     20
  WF centre and spread    1  ( -0.902512,  0.902512,  0.902512 )     1.98117624
  WF centre and spread    2  ( -0.000000, -0.000000, -0.000000 )     0.44609489
  WF centre and spread    3  ( -0.000000,  0.000000,  0.000000 )     0.48531521
  WF centre and spread    4  (  0.000000,  0.000000,  0.000000 )     0.48531521
  WF centre and spread    5  (  0.000000,  0.000000,  0.000000 )     0.44609491
  WF centre and spread    6  (  0.000000,  0.000000, -0.000000 )     0.48531518
  Sum of centres and spreads ( -0.902512,  0.902512,  0.902512 )     4.32931163

     20    -0.293E-04     0.0102429604        4.3293116193       5.76  <-- CONV
        O_D=      0.0547012 O_OD=      0.3211605 O_TOT=      4.3293116 <-- SPRD
 Delta: O_D= -0.6598828E-04 O_OD=  0.3667234E-04 O_TOT= -0.2931593E-04 <-- DLTA
 ------------------------------------------------------------------------------
 Cycle:     21
  WF centre and spread    1  ( -0.902512,  0.902512,  0.902512 )     1.98083156
  WF centre and spread    2  ( -0.000000, -0.000000, -0.000000 )     0.44604808
  WF centre and spread    3  ( -0.000000,  0.000000,  0.000000 )     0.48545301
  WF centre and spread    4  (  0.000000,  0.000000,  0.000000 )     0.48545301
  WF centre and spread    5  (  0.000000,  0.000000,  0.000000 )     0.44604810
  WF centre and spread    6  (  0.000000,  0.000000, -0.000000 )     0.48545298
  Sum of centres and spreads ( -0.902512,  0.902512,  0.902512 )     4.32928674

     21    -0.249E-04     0.0096662391        4.3292867274       5.80  <-- CONV
        O_D=      0.0546229 O_OD=      0.3212139 O_TOT=      4.3292867 <-- SPRD
 Delta: O_D= -0.7833716E-04 O_OD=  0.5344534E-04 O_TOT= -0.2489182E-04 <-- DLTA
 ------------------------------------------------------------------------------
 Cycle:     22
  WF centre and spread    1  ( -0.902512,  0.902512,  0.902512 )     1.98040113
  WF centre and spread    2  ( -0.000000, -0.000000, -0.000000 )     0.44601702
  WF centre and spread    3  ( -0.000000,  0.000000,  0.000000 )     0.48561221
  WF centre and spread    4  (  0.000000,  0.000000,  0.000000 )     0.48561220
  WF centre and spread    5  (  0.000000,  0.000000,  0.000000 )     0.44601704
  WF centre and spread    6  (  0.000000,  0.000000, -0.000000 )     0.48561217
  Sum of centres and spreads ( -0.902512,  0.902512,  0.902512 )     4.32927177

     22    -0.150E-04     0.0075252134        4.3292717570       5.83  <-- CONV
        O_D=      0.0545495 O_OD=      0.3212723 O_TOT=      4.3292718 <-- SPRD
 Delta: O_D= -0.7335990E-04 O_OD=  0.5838949E-04 O_TOT= -0.1497040E-04 <-- DLTA
 ------------------------------------------------------------------------------
 Cycle:     23
  WF centre and spread    1  ( -0.902512,  0.902512,  0.902512 )     1.98001013
  WF centre and spread    2  ( -0.000000, -0.000000, -0.000000 )     0.44599619
  WF centre and spread    3  ( -0.000000,  0.000000,  0.000000 )     0.48575312
  WF centre and spread    4  (  0.000000,  0.000000,  0.000000 )     0.48575312
  WF centre and spread    5  (  0.000000,  0.000000,  0.000000 )     0.44599621
  WF centre and spread    6  (  0.000000,  0.000000, -0.000000 )     0.48575309
  Sum of centres and spreads ( -0.902512,  0.902512,  0.902512 )     4.32926186

     23    -0.991E-05     0.0066172168        4.3292618456       5.87  <-- CONV
        O_D=      0.0544852 O_OD=      0.3213267 O_TOT=      4.3292618 <-- SPRD
 Delta: O_D= -0.6434097E-04 O_OD=  0.5442954E-04 O_TOT= -0.9911430E-05 <-- DLTA
 ------------------------------------------------------------------------------
 Cycle:     24
  WF centre and spread    1  ( -0.902512,  0.902512,  0.902512 )     1.97971280
  WF centre and spread    2  ( -0.000000, -0.000000, -0.000000 )     0.44599068
  WF centre and spread    3  ( -0.000000,  0.000000,  0.000000 )     0.48585431
  WF centre and spread    4  (  0.000000,  0.000000,  0.000000 )     0.48585431
  WF centre and spread    5  (  0.000000,  0.000000,  0.000000 )     0.44599070
  WF centre and spread    6  (  0.000000,  0.000000, -0.000000 )     0.48585428
  Sum of centres and spreads ( -0.902512,  0.902512,  0.902512 )     4.32925708

     24    -0.477E-05     0.0045871436        4.3292570716       5.91  <-- CONV
        O_D=      0.0544481 O_OD=      0.3213590 O_TOT=      4.3292571 <-- SPRD
 Delta: O_D= -0.3706105E-04 O_OD=  0.3228705E-04 O_TOT= -0.4774006E-05 <-- DLTA
 ------------------------------------------------------------------------------
 Cycle:     25
  WF centre and spread    1  ( -0.902512,  0.902512,  0.902512 )     1.97959764
  WF centre and spread    2  ( -0.000000, -0.000000, -0.000000 )     0.44599651
  WF centre and spread    3  ( -0.000000,  0.000000,  0.000000 )     0.48588790
  WF centre and spread    4  (  0.000000,  0.000000,  0.000000 )     0.48588790
  WF centre and spread    5  (  0.000000,  0.000000,  0.000000 )     0.44599653
  WF centre and spread    6  (  0.000000,  0.000000, -0.000000 )     0.48588786
  Sum of centres and spreads ( -0.902512,  0.902512,  0.902512 )     4.32925433

     25    -0.276E-05     0.0038936497        4.3292543159       5.96  <-- CONV
        O_D=      0.0544414 O_OD=      0.3213630 O_TOT=      4.3292543 <-- SPRD
 Delta: O_D= -0.6767442E-05 O_OD=  0.4011745E-05 O_TOT= -0.2755697E-05 <-- DLTA
 ------------------------------------------------------------------------------
 Cycle:     26
  WF centre and spread    1  ( -0.902512,  0.902512,  0.902512 )     1.97919475
  WF centre and spread    2  ( -0.000000, -0.000000, -0.000000 )     0.44601635
  WF centre and spread    3  ( -0.000000,  0.000000,  0.000000 )     0.48600754
  WF centre and spread    4  (  0.000000,  0.000000,  0.000000 )     0.48600754
  WF centre and spread    5  (  0.000000,  0.000000,  0.000000 )     0.44601636
  WF centre and spread    6  (  0.000000,  0.000000, -0.000000 )     0.48600751
  Sum of centres and spreads ( -0.902512,  0.902512,  0.902512 )     4.32925006

     26    -0.427E-05     0.0032897577        4.3292500444       6.00  <-- CONV
        O_D=      0.0544135 O_OD=      0.3213866 O_TOT=      4.3292500 <-- SPRD
 Delta: O_D= -0.2786675E-04 O_OD=  0.2359527E-04 O_TOT= -0.4271477E-05 <-- DLTA
 ------------------------------------------------------------------------------
 Cycle:     27
  WF centre and spread    1  ( -0.902512,  0.902512,  0.902512 )     1.97882565
  WF centre and spread    2  ( -0.000000, -0.000000, -0.000000 )     0.44603206
  WF centre and spread    3  ( -0.000000,  0.000000,  0.000000 )     0.48611907
  WF centre and spread    4  (  0.000000,  0.000000,  0.000000 )     0.48611907
  WF centre and spread    5  (  0.000000,  0.000000,  0.000000 )     0.44603207
  WF centre and spread    6  (  0.000000,  0.000000, -0.000000 )     0.48611904
  Sum of centres and spreads ( -0.902512,  0.902512,  0.902512 )     4.32924696

     27    -0.310E-05     0.0037495230        4.3292469466       6.04  <-- CONV
        O_D=      0.0543830 O_OD=      0.3214140 O_TOT=      4.3292469 <-- SPRD
 Delta: O_D= -0.3046957E-04 O_OD=  0.2737177E-04 O_TOT= -0.3097798E-05 <-- DLTA
 ------------------------------------------------------------------------------
 Cycle:     28
  WF centre and spread    1  ( -0.902512,  0.902512,  0.902512 )     1.97848525
  WF centre and spread    2  ( -0.000000, -0.000000, -0.000000 )     0.44604181
  WF centre and spread    3  ( -0.000000,  0.000000,  0.000000 )     0.48622529
  WF centre and spread    4  (  0.000000,  0.000000,  0.000000 )     0.48622529
  WF centre and spread    5  (  0.000000,  0.000000,  0.000000 )     0.44604182
  WF centre and spread    6  (  0.000000,  0.000000, -0.000000 )     0.48622526
  Sum of centres and spreads ( -0.902512,  0.902512,  0.902512 )     4.32924471

     28    -0.226E-05     0.0027224564        4.3292446912       6.07  <-- CONV
        O_D=      0.0543520 O_OD=      0.3214427 O_TOT=      4.3292447 <-- SPRD
 Delta: O_D= -0.3098897E-04 O_OD=  0.2873360E-04 O_TOT= -0.2255377E-05 <-- DLTA
 ------------------------------------------------------------------------------
 Cycle:     29
  WF centre and spread    1  ( -0.902512,  0.902512,  0.902512 )     1.97826438
  WF centre and spread    2  ( -0.000000, -0.000000, -0.000000 )     0.44604519
  WF centre and spread    3  ( -0.000000,  0.000000,  0.000000 )     0.48629625
  WF centre and spread    4  (  0.000000,  0.000000,  0.000000 )     0.48629624
  WF centre and spread    5  (  0.000000,  0.000000,  0.000000 )     0.44604520
  WF centre and spread    6  (  0.000000,  0.000000, -0.000000 )     0.48629621
  Sum of centres and spreads ( -0.902512,  0.902512,  0.902512 )     4.32924347

     29    -0.123E-05     0.0024028181        4.3292434580       6.11  <-- CONV
        O_D=      0.0543310 O_OD=      0.3214626 O_TOT=      4.3292435 <-- SPRD
 Delta: O_D= -0.2109339E-04 O_OD=  0.1986013E-04 O_TOT= -0.1233257E-05 <-- DLTA
 ------------------------------------------------------------------------------
 Cycle:     30
  WF centre and spread    1  ( -0.902512,  0.902512,  0.902512 )     1.97812892
  WF centre and spread    2  ( -0.000000, -0.000000, -0.000000 )     0.44604417
  WF centre and spread    3  ( -0.000000,  0.000000,  0.000000 )     0.48634186
  WF centre and spread    4  (  0.000000,  0.000000,  0.000000 )     0.48634186
  WF centre and spread    5  (  0.000000,  0.000000,  0.000000 )     0.44604419
  WF centre and spread    6  (  0.000000,  0.000000, -0.000000 )     0.48634183
  Sum of centres and spreads ( -0.902512,  0.902512,  0.902512 )     4.32924282

     30    -0.653E-06     0.0016659340        4.3292428047       6.15  <-- CONV
        O_D=      0.0543137 O_OD=      0.3214792 O_TOT=      4.3292428 <-- SPRD
 Delta: O_D= -0.1724422E-04 O_OD=  0.1659097E-04 O_TOT= -0.6532412E-06 <-- DLTA
 ------------------------------------------------------------------------------
 Cycle:     31
  WF centre and spread    1  ( -0.902512,  0.902512,  0.902512 )     1.97812048
  WF centre and spread    2  ( -0.000000, -0.000000, -0.000000 )     0.44604208
  WF centre and spread    3  ( -0.000000,  0.000000,  0.000000 )     0.48634591
  WF centre and spread    4  (  0.000000,  0.000000,  0.000000 )     0.48634591
  WF centre and spread    5  (  0.000000,  0.000000,  0.000000 )     0.44604210
  WF centre and spread    6  (  0.000000,  0.000000, -0.000000 )     0.48634588
  Sum of centres and spreads ( -0.902512,  0.902512,  0.902512 )     4.32924235

     31    -0.468E-06     0.0016828836        4.3292423368       6.18  <-- CONV
        O_D=      0.0543095 O_OD=      0.3214829 O_TOT=      4.3292423 <-- SPRD
 Delta: O_D= -0.4163305E-05 O_OD=  0.3695343E-05 O_TOT= -0.4679622E-06 <-- DLTA
 ------------------------------------------------------------------------------
 Cycle:     32
  WF centre and spread    1  ( -0.902512,  0.902512,  0.902512 )     1.97809412
  WF centre and spread    2  ( -0.000000, -0.000000, -0.000000 )     0.44603681
  WF centre and spread    3  ( -0.000000,  0.000000,  0.000000 )     0.48635804
  WF centre and spread    4  (  0.000000,  0.000000,  0.000000 )     0.48635804
  WF centre and spread    5  (  0.000000,  0.000000,  0.000000 )     0.44603683
  WF centre and spread    6  (  0.000000,  0.000000, -0.000000 )     0.48635801
  Sum of centres and spreads ( -0.902512,  0.902512,  0.902512 )     4.32924185

     32    -0.504E-06     0.0012782990        4.3292418331       6.22  <-- CONV
        O_D=      0.0542994 O_OD=      0.3214925 O_TOT=      4.3292418 <-- SPRD
 Delta: O_D= -0.1010888E-04 O_OD=  0.9605224E-05 O_TOT= -0.5036586E-06 <-- DLTA
 ------------------------------------------------------------------------------
 Cycle:     33
  WF centre and spread    1  ( -0.902512,  0.902512,  0.902512 )     1.97804957
  WF centre and spread    2  ( -0.000000, -0.000000, -0.000000 )     0.44603079
  WF centre and spread    3  ( -0.000000,  0.000000,  0.000000 )     0.48637676
  WF centre and spread    4  (  0.000000,  0.000000,  0.000000 )     0.48637676
  WF centre and spread    5  (  0.000000,  0.000000,  0.000000 )     0.44603081
  WF centre and spread    6  (  0.000000,  0.000000, -0.000000 )     0.48637673
  Sum of centres and spreads ( -0.902512,  0.902512,  0.902512 )     4.32924141

     33    -0.438E-06     0.0012974262        4.3292413954       6.26  <-- CONV
        O_D=      0.0542881 O_OD=      0.3215033 O_TOT=      4.3292414 <-- SPRD
 Delta: O_D= -0.1129413E-04 O_OD=  0.1085635E-04 O_TOT= -0.4377753E-06 <-- DLTA
 ------------------------------------------------------------------------------
 Cycle:     34
  WF centre and spread    1  ( -0.902512,  0.902512,  0.902512 )     1.97799947
  WF centre and spread    2  ( -0.000000, -0.000000, -0.000000 )     0.44602651
  WF centre and spread    3  ( -0.000000,  0.000000,  0.000000 )     0.48639623
  WF centre and spread    4  (  0.000000,  0.000000,  0.000000 )     0.48639623
  WF centre and spread    5  (  0.000000,  0.000000,  0.000000 )     0.44602653
  WF centre and spread    6  (  0.000000,  0.000000, -0.000000 )     0.48639620
  Sum of centres and spreads ( -0.902512,  0.902512,  0.902512 )     4.32924116

     34    -0.254E-06     0.0009704435        4.3292411418       6.30  <-- CONV
        O_D=      0.0542787 O_OD=      0.3215126 O_TOT=      4.3292411 <-- SPRD
 Delta: O_D= -0.9487511E-05 O_OD=  0.9234010E-05 O_TOT= -0.2535015E-06 <-- DLTA
 ------------------------------------------------------------------------------
 Cycle:     35
  WF centre and spread    1  ( -0.902512,  0.902512,  0.902512 )     1.97794685
  WF centre and spread    2  ( -0.000000, -0.000000, -0.000000 )     0.44602377
  WF centre and spread    3  ( -0.000000,  0.000000,  0.000000 )     0.48641554
  WF centre and spread    4  (  0.000000,  0.000000,  0.000000 )     0.48641554
  WF centre and spread    5  (  0.000000,  0.000000,  0.000000 )     0.44602379
  WF centre and spread    6  (  0.000000,  0.000000, -0.000000 )     0.48641551
  Sum of centres and spreads ( -0.902512,  0.902512,  0.902512 )     4.32924099

     35    -0.170E-06     0.0008782445        4.3292409717       6.33  <-- CONV
        O_D=      0.0542699 O_OD=      0.3215211 O_TOT=      4.3292410 <-- SPRD
 Delta: O_D= -0.8732269E-05 O_OD=  0.8562146E-05 O_TOT= -0.1701228E-06 <-- DLTA
 ------------------------------------------------------------------------------
 Cycle:     36
  WF centre and spread    1  ( -0.902512,  0.902512,  0.902512 )     1.97790747
  WF centre and spread    2  ( -0.000000, -0.000000, -0.000000 )     0.44602364
  WF centre and spread    3  ( -0.000000,  0.000000,  0.000000 )     0.48642873
  WF centre and spread    4  (  0.000000,  0.000000,  0.000000 )     0.48642873
  WF centre and spread    5  (  0.000000,  0.000000,  0.000000 )     0.44602366
  WF centre and spread    6  (  0.000000,  0.000000, -0.000000 )     0.48642870
  Sum of centres and spreads ( -0.902512,  0.902512,  0.902512 )     4.32924093

     36    -0.631E-07     0.0005364751        4.3292409086       6.37  <-- CONV
        O_D=      0.0542654 O_OD=      0.3215256 O_TOT=      4.3292409 <-- SPRD
 Delta: O_D= -0.4521364E-05 O_OD=  0.4458251E-05 O_TOT= -0.6311268E-07 <-- DLTA
 ------------------------------------------------------------------------------
 Cycle:     37
  WF centre and spread    1  ( -0.902512,  0.902512,  0.902512 )     1.97789318
  WF centre and spread    2  ( -0.000000, -0.000000, -0.000000 )     0.44602440
  WF centre and spread    3  ( -0.000000,  0.000000,  0.000000 )     0.48643297
  WF centre and spread    4  (  0.000000,  0.000000,  0.000000 )     0.48643297
  WF centre and spread    5  (  0.000000,  0.000000,  0.000000 )     0.44602442
  WF centre and spread    6  (  0.000000,  0.000000, -0.000000 )     0.48643294
  Sum of centres and spreads ( -0.902512,  0.902512,  0.902512 )     4.32924088

     37    -0.489E-07     0.0005268456        4.3292408597       6.41  <-- CONV
        O_D=      0.0542646 O_OD=      0.3215263 O_TOT=      4.3292409 <-- SPRD
 Delta: O_D= -0.7965904E-06 O_OD=  0.7476845E-06 O_TOT= -0.4890591E-07 <-- DLTA
 ------------------------------------------------------------------------------
 Cycle:     38
  WF centre and spread    1  ( -0.902512,  0.902512,  0.902512 )     1.97784111
  WF centre and spread    2  ( -0.000000, -0.000000, -0.000000 )     0.44602694
  WF centre and spread    3  ( -0.000000,  0.000000,  0.000000 )     0.48644861
  WF centre and spread    4  (  0.000000,  0.000000,  0.000000 )     0.48644861
  WF centre and spread    5  (  0.000000,  0.000000,  0.000000 )     0.44602695
  WF centre and spread    6  (  0.000000,  0.000000, -0.000000 )     0.48644858
  Sum of centres and spreads ( -0.902512,  0.902512,  0.902512 )     4.32924081

     38    -0.756E-07     0.0004366724        4.3292407841       6.45  <-- CONV
        O_D=      0.0542612 O_OD=      0.3215297 O_TOT=      4.3292408 <-- SPRD
 Delta: O_D= -0.3440161E-05 O_OD=  0.3364594E-05 O_TOT= -0.7556676E-07 <-- DLTA
 ------------------------------------------------------------------------------
 Cycle:     39
  WF centre and spread    1  ( -0.902512,  0.902512,  0.902512 )     1.97779105
  WF centre and spread    2  ( -0.000000, -0.000000, -0.000000 )     0.44602897
  WF centre and spread    3  ( -0.000000,  0.000000,  0.000000 )     0.48646392
  WF centre and spread    4  (  0.000000,  0.000000,  0.000000 )     0.48646392
  WF centre and spread    5  (  0.000000,  0.000000,  0.000000 )     0.44602899
  WF centre and spread    6  (  0.000000,  0.000000, -0.000000 )     0.48646389
  Sum of centres and spreads ( -0.902512,  0.902512,  0.902512 )     4.32924075

     39    -0.558E-07     0.0004936395        4.3292407283       6.50  <-- CONV
        O_D=      0.0542572 O_OD=      0.3215337 O_TOT=      4.3292407 <-- SPRD
 Delta: O_D= -0.3996683E-05 O_OD=  0.3940864E-05 O_TOT= -0.5581907E-07 <-- DLTA
 ------------------------------------------------------------------------------
 Cycle:     40
  WF centre and spread    1  ( -0.902512,  0.902512,  0.902512 )     1.97774459
  WF centre and spread    2  ( -0.000000, -0.000000, -0.000000 )     0.44603024
  WF centre and spread    3  ( -0.000000,  0.000000,  0.000000 )     0.48647855
  WF centre and spread    4  (  0.000000,  0.000000,  0.000000 )     0.48647855
  WF centre and spread    5  (  0.000000,  0.000000,  0.000000 )     0.44603025
  WF centre and spread    6  (  0.000000,  0.000000, -0.000000 )     0.48647852
  Sum of centres and spreads ( -0.902512,  0.902512,  0.902512 )     4.32924071

     40    -0.411E-07     0.0003719227        4.3292406873       6.54  <-- CONV
        O_D=      0.0542530 O_OD=      0.3215378 O_TOT=      4.3292407 <-- SPRD
 Delta: O_D= -0.4149126E-05 O_OD=  0.4108064E-05 O_TOT= -0.4106198E-07 <-- DLTA
 ------------------------------------------------------------------------------
 Cycle:     41
  WF centre and spread    1  ( -0.902512,  0.902512,  0.902512 )     1.97771568
  WF centre and spread    2  ( -0.000000, -0.000000, -0.000000 )     0.44603066
  WF centre and spread    3  ( -0.000000,  0.000000,  0.000000 )     0.48648790
  WF centre and spread    4  (  0.000000,  0.000000,  0.000000 )     0.48648790
  WF centre and spread    5  (  0.000000,  0.000000,  0.000000 )     0.44603068
  WF centre and spread    6  (  0.000000,  0.000000, -0.000000 )     0.48648787
  Sum of centres and spreads ( -0.902512,  0.902512,  0.902512 )     4.32924069

     41    -0.220E-07     0.0003168398        4.3292406653       6.58  <-- CONV
        O_D=      0.0542503 O_OD=      0.3215405 O_TOT=      4.3292407 <-- SPRD
 Delta: O_D= -0.2729320E-05 O_OD=  0.2707366E-05 O_TOT= -0.2195403E-07 <-- DLTA
 ------------------------------------------------------------------------------
 Cycle:     42
  WF centre and spread    1  ( -0.902512,  0.902512,  0.902512 )     1.97769872
  WF centre and spread    2  ( -0.000000, -0.000000, -0.000000 )     0.44603053
  WF centre and spread    3  ( -0.000000,  0.000000,  0.000000 )     0.48649364
  WF centre and spread    4  (  0.000000,  0.000000,  0.000000 )     0.48649364
  WF centre and spread    5  (  0.000000,  0.000000,  0.000000 )     0.44603054
  WF centre and spread    6  (  0.000000,  0.000000, -0.000000 )     0.48649361
  Sum of centres and spreads ( -0.902512,  0.902512,  0.902512 )     4.32924068

     42    -0.115E-07     0.0002199520        4.3292406538       6.62  <-- CONV
        O_D=      0.0542481 O_OD=      0.3215426 O_TOT=      4.3292407 <-- SPRD
 Delta: O_D= -0.2169269E-05 O_OD=  0.2157806E-05 O_TOT= -0.1146310E-07 <-- DLTA
 ------------------------------------------------------------------------------
 Cycle:     43
  WF centre and spread    1  ( -0.902512,  0.902512,  0.902512 )     1.97769754
  WF centre and spread    2  ( -0.000000, -0.000000, -0.000000 )     0.44603027
  WF centre and spread    3  ( -0.000000,  0.000000,  0.000000 )     0.48649420
  WF centre and spread    4  (  0.000000,  0.000000,  0.000000 )     0.48649420
  WF centre and spread    5  (  0.000000,  0.000000,  0.000000 )     0.44603029
  WF centre and spread    6  (  0.000000,  0.000000, -0.000000 )     0.48649417
  Sum of centres and spreads ( -0.902512,  0.902512,  0.902512 )     4.32924067

     43    -0.837E-08     0.0002258352        4.3292406455       6.66  <-- CONV
        O_D=      0.0542476 O_OD=      0.3215432 O_TOT=      4.3292406 <-- SPRD
 Delta: O_D= -0.5454380E-06 O_OD=  0.5370726E-06 O_TOT= -0.8365479E-08 <-- DLTA
 ------------------------------------------------------------------------------
 Cycle:     44
  WF centre and spread    1  ( -0.902512,  0.902512,  0.902512 )     1.97769392
  WF centre and spread    2  ( -0.000000, -0.000000, -0.000000 )     0.44602962
  WF centre and spread    3  ( -0.000000,  0.000000,  0.000000 )     0.48649584
  WF centre and spread    4  (  0.000000,  0.000000,  0.000000 )     0.48649584
  WF centre and spread    5  (  0.000000,  0.000000,  0.000000 )     0.44602964
  WF centre and spread    6  (  0.000000,  0.000000, -0.000000 )     0.48649581
  Sum of centres and spreads ( -0.902512,  0.902512,  0.902512 )     4.32924066

     44    -0.917E-08     0.0001702631        4.3292406363       6.70  <-- CONV
        O_D=      0.0542462 O_OD=      0.3215445 O_TOT=      4.3292406 <-- SPRD
 Delta: O_D= -0.1334762E-05 O_OD=  0.1325590E-05 O_TOT= -0.9171824E-08 <-- DLTA
 ------------------------------------------------------------------------------
 Cycle:     45
  WF centre and spread    1  ( -0.902512,  0.902512,  0.902512 )     1.97768794
  WF centre and spread    2  ( -0.000000, -0.000000, -0.000000 )     0.44602888
  WF centre and spread    3  ( -0.000000,  0.000000,  0.000000 )     0.48649833
  WF centre and spread    4  (  0.000000,  0.000000,  0.000000 )     0.48649832
  WF centre and spread    5  (  0.000000,  0.000000,  0.000000 )     0.44602889
  WF centre and spread    6  (  0.000000,  0.000000, -0.000000 )     0.48649829
  Sum of centres and spreads ( -0.902512,  0.902512,  0.902512 )     4.32924065

     45    -0.804E-08     0.0001689943        4.3292406283       6.74  <-- CONV
        O_D=      0.0542447 O_OD=      0.3215460 O_TOT=      4.3292406 <-- SPRD
 Delta: O_D= -0.1520209E-05 O_OD=  0.1512171E-05 O_TOT= -0.8037972E-08 <-- DLTA
 ------------------------------------------------------------------------------
 Cycle:     46
  WF centre and spread    1  ( -0.902512,  0.902512,  0.902512 )     1.97768141
  WF centre and spread    2  ( -0.000000, -0.000000, -0.000000 )     0.44602834
  WF centre and spread    3  ( -0.000000,  0.000000,  0.000000 )     0.48650086
  WF centre and spread    4  (  0.000000,  0.000000,  0.000000 )     0.48650086
  WF centre and spread    5  (  0.000000,  0.000000,  0.000000 )     0.44602836
  WF centre and spread    6  (  0.000000,  0.000000, -0.000000 )     0.48650083
  Sum of centres and spreads ( -0.902512,  0.902512,  0.902512 )     4.32924065

     46    -0.469E-08     0.0001296190        4.3292406236       6.77  <-- CONV
        O_D=      0.0542434 O_OD=      0.3215473 O_TOT=      4.3292406 <-- SPRD
 Delta: O_D= -0.1281726E-05 O_OD=  0.1277038E-05 O_TOT= -0.4687801E-08 <-- DLTA
 ------------------------------------------------------------------------------
 Cycle:     47
  WF centre and spread    1  ( -0.902512,  0.902512,  0.902512 )     1.97767447
  WF centre and spread    2  ( -0.000000, -0.000000, -0.000000 )     0.44602801
  WF centre and spread    3  ( -0.000000,  0.000000,  0.000000 )     0.48650339
  WF centre and spread    4  (  0.000000,  0.000000,  0.000000 )     0.48650339
  WF centre and spread    5  (  0.000000,  0.000000,  0.000000 )     0.44602802
  WF centre and spread    6  (  0.000000,  0.000000, -0.000000 )     0.48650336
  Sum of centres and spreads ( -0.902512,  0.902512,  0.902512 )     4.32924065

     47    -0.308E-08     0.0001118624        4.3292406205       6.81  <-- CONV
        O_D=      0.0542423 O_OD=      0.3215484 O_TOT=      4.3292406 <-- SPRD
 Delta: O_D= -0.1160415E-05 O_OD=  0.1157335E-05 O_TOT= -0.3080530E-08 <-- DLTA
 ------------------------------------------------------------------------------
 Cycle:     48
  WF centre and spread    1  ( -0.902512,  0.902512,  0.902512 )     1.97766943
  WF centre and spread    2  ( -0.000000, -0.000000, -0.000000 )     0.44602799
  WF centre and spread    3  ( -0.000000,  0.000000,  0.000000 )     0.48650509
  WF centre and spread    4  (  0.000000,  0.000000,  0.000000 )     0.48650509
  WF centre and spread    5  (  0.000000,  0.000000,  0.000000 )     0.44602800
  WF centre and spread    6  (  0.000000,  0.000000, -0.000000 )     0.48650506
  Sum of centres and spreads ( -0.902512,  0.902512,  0.902512 )     4.32924065

     48    -0.116E-08     0.0000691811        4.3292406193       6.85  <-- CONV
        O_D=      0.0542417 O_OD=      0.3215490 O_TOT=      4.3292406 <-- SPRD
 Delta: O_D= -0.5834407E-06 O_OD=  0.5822810E-06 O_TOT= -0.1159697E-08 <-- DLTA
 ------------------------------------------------------------------------------
 Cycle:     49
  WF centre and spread    1  ( -0.902512,  0.902512,  0.902512 )     1.97766746
  WF centre and spread    2  ( -0.000000, -0.000000, -0.000000 )     0.44602808
  WF centre and spread    3  ( -0.000000,  0.000000,  0.000000 )     0.48650568
  WF centre and spread    4  (  0.000000,  0.000000,  0.000000 )     0.48650568
  WF centre and spread    5  (  0.000000,  0.000000,  0.000000 )     0.44602809
  WF centre and spread    6  (  0.000000,  0.000000, -0.000000 )     0.48650565
  Sum of centres and spreads ( -0.902512,  0.902512,  0.902512 )     4.32924065

     49    -0.824E-09     0.0000643955        4.3292406185       6.89  <-- CONV
        O_D=      0.0542416 O_OD=      0.3215491 O_TOT=      4.3292406 <-- SPRD
 Delta: O_D= -0.1219019E-06 O_OD=  0.1210780E-06 O_TOT= -0.8239178E-09 <-- DLTA
 ------------------------------------------------------------------------------
 Cycle:     50
  WF centre and spread    1  ( -0.902512,  0.902512,  0.902512 )     1.97766171
  WF centre and spread    2  ( -0.000000, -0.000000, -0.000000 )     0.44602832
  WF centre and spread    3  ( -0.000000,  0.000000,  0.000000 )     0.48650744
  WF centre and spread    4  (  0.000000,  0.000000,  0.000000 )     0.48650744
  WF centre and spread    5  (  0.000000,  0.000000,  0.000000 )     0.44602833
  WF centre and spread    6  (  0.000000,  0.000000, -0.000000 )     0.48650741
  Sum of centres and spreads ( -0.902512,  0.902512,  0.902512 )     4.32924064

     50    -0.133E-08     0.0000530686        4.3292406172       6.93  <-- CONV
        O_D=      0.0542412 O_OD=      0.3215495 O_TOT=      4.3292406 <-- SPRD
 Delta: O_D= -0.4043277E-06 O_OD=  0.4029950E-06 O_TOT= -0.1332777E-08 <-- DLTA
 ------------------------------------------------------------------------------
 Cycle:     51
  WF centre and spread    1  ( -0.902512,  0.902512,  0.902512 )     1.97765588
  WF centre and spread    2  ( -0.000000, -0.000000, -0.000000 )     0.44602851
  WF centre and spread    3  ( -0.000000,  0.000000,  0.000000 )     0.48650925
  WF centre and spread    4  (  0.000000,  0.000000,  0.000000 )     0.48650925
  WF centre and spread    5  (  0.000000,  0.000000,  0.000000 )     0.44602853
  WF centre and spread    6  (  0.000000,  0.000000, -0.000000 )     0.48650922
  Sum of centres and spreads ( -0.902512,  0.902512,  0.902512 )     4.32924064

     51    -0.101E-08     0.0000488431        4.3292406162       6.97  <-- CONV
        O_D=      0.0542407 O_OD=      0.3215500 O_TOT=      4.3292406 <-- SPRD
 Delta: O_D= -0.4839832E-06 O_OD=  0.4829691E-06 O_TOT= -0.1014062E-08 <-- DLTA
 ------------------------------------------------------------------------------
 Cycle:     52
[...]
 ------------------------------------------------------------------------------
 Cycle:     82
  WF centre and spread    1  ( -0.902512,  0.902512,  0.902512 )     1.97763545
  WF centre and spread    2  ( -0.000000, -0.000000, -0.000000 )     0.44602858
  WF centre and spread    3  ( -0.000000,  0.000000,  0.000000 )     0.48651602
  WF centre and spread    4  (  0.000000,  0.000000,  0.000000 )     0.48651602
  WF centre and spread    5  (  0.000000,  0.000000,  0.000000 )     0.44602860
  WF centre and spread    6  (  0.000000,  0.000000, -0.000000 )     0.48651599
  Sum of centres and spreads ( -0.902512,  0.902512,  0.902512 )     4.32924066

     82    -0.306E-11     0.0000046848        4.3292406139       8.17  <-- CONV
        O_D=      0.0542383 O_OD=      0.3215524 O_TOT=      4.3292406 <-- SPRD
 Delta: O_D= -0.1070814E-07 O_OD=  0.1070508E-07 O_TOT= -0.3063327E-11 <-- DLTA
 ------------------------------------------------------------------------------
 Cycle:     83
  WF centre and spread    1  ( -0.902512,  0.902512,  0.902512 )     1.97763533
  WF centre and spread    2  ( -0.000000, -0.000000, -0.000000 )     0.44602859
  WF centre and spread    3  ( -0.000000,  0.000000,  0.000000 )     0.48651606
  WF centre and spread    4  (  0.000000,  0.000000,  0.000000 )     0.48651606
  WF centre and spread    5  (  0.000000,  0.000000,  0.000000 )     0.44602860
  WF centre and spread    6  (  0.000000,  0.000000, -0.000000 )     0.48651603
  Sum of centres and spreads ( -0.902512,  0.902512,  0.902512 )     4.32924066

     83    -0.375E-11     0.0000045180        4.3292406139       8.21  <-- CONV
        O_D=      0.0542383 O_OD=      0.3215524 O_TOT=      4.3292406 <-- SPRD
 Delta: O_D= -0.1428040E-07 O_OD=  0.1427665E-07 O_TOT= -0.3751666E-11 <-- DLTA
 ------------------------------------------------------------------------------
 Cycle:     84
  WF centre and spread    1  ( -0.902512,  0.902512,  0.902512 )     1.97763515
  WF centre and spread    2  ( -0.000000, -0.000000, -0.000000 )     0.44602859
  WF centre and spread    3  ( -0.000000,  0.000000,  0.000000 )     0.48651612
  WF centre and spread    4  (  0.000000,  0.000000,  0.000000 )     0.48651612
  WF centre and spread    5  (  0.000000,  0.000000,  0.000000 )     0.44602860
  WF centre and spread    6  (  0.000000,  0.000000, -0.000000 )     0.48651609
  Sum of centres and spreads ( -0.902512,  0.902512,  0.902512 )     4.32924066

     84    -0.516E-11     0.0000045116        4.3292406139       8.25  <-- CONV
        O_D=      0.0542383 O_OD=      0.3215524 O_TOT=      4.3292406 <-- SPRD
 Delta: O_D= -0.2058842E-07 O_OD=  0.2058325E-07 O_TOT= -0.5164758E-11 <-- DLTA
 ------------------------------------------------------------------------------
 Cycle:     85
  WF centre and spread    1  ( -0.902512,  0.902512,  0.902512 )     1.97763514
  WF centre and spread    2  ( -0.000000, -0.000000, -0.000000 )     0.44602859
  WF centre and spread    3  ( -0.000000,  0.000000,  0.000000 )     0.48651612
  WF centre and spread    4  (  0.000000,  0.000000,  0.000000 )     0.48651612
  WF centre and spread    5  (  0.000000,  0.000000,  0.000000 )     0.44602860
  WF centre and spread    6  (  0.000000,  0.000000, -0.000000 )     0.48651609
  Sum of centres and spreads ( -0.902512,  0.902512,  0.902512 )     4.32924066

     85     0.181E-12     0.0000046285        4.3292406139       8.29  <-- CONV
        O_D=      0.0542383 O_OD=      0.3215524 O_TOT=      4.3292406 <-- SPRD
 Delta: O_D= -0.9290183E-09 O_OD=  0.9291984E-09 O_TOT=  0.1811884E-12 <-- DLTA
 ------------------------------------------------------------------------------
 Cycle:     86
  WF centre and spread    1  ( -0.902512,  0.902512,  0.902512 )     1.97763511
  WF centre and spread    2  ( -0.000000, -0.000000, -0.000000 )     0.44602859
  WF centre and spread    3  ( -0.000000,  0.000000,  0.000000 )     0.48651613
  WF centre and spread    4  (  0.000000,  0.000000,  0.000000 )     0.48651613
  WF centre and spread    5  (  0.000000,  0.000000,  0.000000 )     0.44602860
  WF centre and spread    6  (  0.000000,  0.000000, -0.000000 )     0.48651610
  Sum of centres and spreads ( -0.902512,  0.902512,  0.902512 )     4.32924066

     86    -0.551E-12     0.0000045896        4.3292406139       8.33  <-- CONV
        O_D=      0.0542383 O_OD=      0.3215524 O_TOT=      4.3292406 <-- SPRD
 Delta: O_D= -0.3478346E-08 O_OD=  0.3477796E-08 O_TOT= -0.5506706E-12 <-- DLTA
 ------------------------------------------------------------------------------
 Cycle:     87
  WF centre and spread    1  ( -0.902512,  0.902512,  0.902512 )     1.97763506
  WF centre and spread    2  ( -0.000000, -0.000000, -0.000000 )     0.44602859
  WF centre and spread    3  ( -0.000000,  0.000000,  0.000000 )     0.48651615
  WF centre and spread    4  (  0.000000,  0.000000,  0.000000 )     0.48651615
  WF centre and spread    5  (  0.000000,  0.000000,  0.000000 )     0.44602860
  WF centre and spread    6  (  0.000000,  0.000000, -0.000000 )     0.48651612
  Sum of centres and spreads ( -0.902512,  0.902512,  0.902512 )     4.32924066

     87    -0.141E-11     0.0000044579        4.3292406139       8.36  <-- CONV
        O_D=      0.0542383 O_OD=      0.3215524 O_TOT=      4.3292406 <-- SPRD
 Delta: O_D= -0.6730092E-08 O_OD=  0.6728679E-08 O_TOT= -0.1412204E-11 <-- DLTA
 ------------------------------------------------------------------------------
 Cycle:     88
  WF centre and spread    1  ( -0.902512,  0.902512,  0.902512 )     1.97763498
  WF centre and spread    2  ( -0.000000, -0.000000, -0.000000 )     0.44602859
  WF centre and spread    3  ( -0.000000,  0.000000,  0.000000 )     0.48651617
  WF centre and spread    4  (  0.000000,  0.000000,  0.000000 )     0.48651617
  WF centre and spread    5  (  0.000000,  0.000000,  0.000000 )     0.44602860
  WF centre and spread    6  (  0.000000,  0.000000, -0.000000 )     0.48651614
  Sum of centres and spreads ( -0.902512,  0.902512,  0.902512 )     4.32924066

     88    -0.205E-11     0.0000042653        4.3292406139       8.40  <-- CONV
        O_D=      0.0542383 O_OD=      0.3215524 O_TOT=      4.3292406 <-- SPRD
 Delta: O_D= -0.9611654E-08 O_OD=  0.9609602E-08 O_TOT= -0.2051692E-11 <-- DLTA
 ------------------------------------------------------------------------------
 Cycle:     89
  WF centre and spread    1  ( -0.902512,  0.902512,  0.902512 )     1.97763488
  WF centre and spread    2  ( -0.000000, -0.000000, -0.000000 )     0.44602859
  WF centre and spread    3  ( -0.000000,  0.000000,  0.000000 )     0.48651621
  WF centre and spread    4  (  0.000000,  0.000000,  0.000000 )     0.48651621
  WF centre and spread    5  (  0.000000,  0.000000,  0.000000 )     0.44602860
  WF centre and spread    6  (  0.000000,  0.000000, -0.000000 )     0.48651618
  Sum of centres and spreads ( -0.902512,  0.902512,  0.902512 )     4.32924066

     89    -0.267E-11     0.0000041144        4.3292406139       8.44  <-- CONV
        O_D=      0.0542383 O_OD=      0.3215524 O_TOT=      4.3292406 <-- SPRD
 Delta: O_D= -0.1277725E-07 O_OD=  0.1277458E-07 O_TOT= -0.2674305E-11 <-- DLTA
 ------------------------------------------------------------------------------
 Cycle:     90
  WF centre and spread    1  ( -0.902512,  0.902512,  0.902512 )     1.97763475
  WF centre and spread    2  ( -0.000000, -0.000000, -0.000000 )     0.44602859
  WF centre and spread    3  ( -0.000000,  0.000000,  0.000000 )     0.48651625
  WF centre and spread    4  (  0.000000,  0.000000,  0.000000 )     0.48651625
  WF centre and spread    5  (  0.000000,  0.000000,  0.000000 )     0.44602860
  WF centre and spread    6  (  0.000000,  0.000000, -0.000000 )     0.48651622
  Sum of centres and spreads ( -0.902512,  0.902512,  0.902512 )     4.32924066

     90    -0.346E-11     0.0000040676        4.3292406139       8.48  <-- CONV
        O_D=      0.0542382 O_OD=      0.3215525 O_TOT=      4.3292406 <-- SPRD
 Delta: O_D= -0.1668427E-07 O_OD=  0.1668082E-07 O_TOT= -0.3455014E-11 <-- DLTA
 ------------------------------------------------------------------------------
 Cycle:     91
  WF centre and spread    1  ( -0.902512,  0.902512,  0.902512 )     1.97763474
  WF centre and spread    2  ( -0.000000, -0.000000, -0.000000 )     0.44602859
  WF centre and spread    3  ( -0.000000,  0.000000,  0.000000 )     0.48651625
  WF centre and spread    4  (  0.000000,  0.000000,  0.000000 )     0.48651625
  WF centre and spread    5  (  0.000000,  0.000000,  0.000000 )     0.44602860
  WF centre and spread    6  (  0.000000,  0.000000, -0.000000 )     0.48651622
  Sum of centres and spreads ( -0.902512,  0.902512,  0.902512 )     4.32924066

     91     0.295E-12     0.0000041207        4.3292406139       8.52  <-- CONV
        O_D=      0.0542382 O_OD=      0.3215525 O_TOT=      4.3292406 <-- SPRD
 Delta: O_D= -0.5677852E-09 O_OD=  0.5680799E-09 O_TOT=  0.2948752E-12 <-- DLTA
 ------------------------------------------------------------------------------
 Cycle:     92
  WF centre and spread    1  ( -0.902512,  0.902512,  0.902512 )     1.97763472
  WF centre and spread    2  ( -0.000000, -0.000000, -0.000000 )     0.44602859
  WF centre and spread    3  ( -0.000000,  0.000000,  0.000000 )     0.48651626
  WF centre and spread    4  (  0.000000,  0.000000,  0.000000 )     0.48651626
  WF centre and spread    5  (  0.000000,  0.000000,  0.000000 )     0.44602860
  WF centre and spread    6  (  0.000000,  0.000000, -0.000000 )     0.48651623
  Sum of centres and spreads ( -0.902512,  0.902512,  0.902512 )     4.32924066

     92    -0.202E-12     0.0000041008        4.3292406139       8.56  <-- CONV
        O_D=      0.0542382 O_OD=      0.3215525 O_TOT=      4.3292406 <-- SPRD
 Delta: O_D= -0.2232326E-08 O_OD=  0.2232123E-08 O_TOT= -0.2016165E-12 <-- DLTA
 ------------------------------------------------------------------------------
 Cycle:     93
  WF centre and spread    1  ( -0.902512,  0.902512,  0.902512 )     1.97763468
  WF centre and spread    2  ( -0.000000, -0.000000, -0.000000 )     0.44602859
  WF centre and spread    3  ( -0.000000,  0.000000,  0.000000 )     0.48651628
  WF centre and spread    4  (  0.000000,  0.000000,  0.000000 )     0.48651627
  WF centre and spread    5  (  0.000000,  0.000000,  0.000000 )     0.44602860
  WF centre and spread    6  (  0.000000,  0.000000, -0.000000 )     0.48651624
  Sum of centres and spreads ( -0.902512,  0.902512,  0.902512 )     4.32924067

     93    -0.854E-12     0.0000040291        4.3292406139       8.60  <-- CONV
        O_D=      0.0542382 O_OD=      0.3215525 O_TOT=      4.3292406 <-- SPRD
 Delta: O_D= -0.4591755E-08 O_OD=  0.4590901E-08 O_TOT= -0.8544276E-12 <-- DLTA
 ------------------------------------------------------------------------------
 Cycle:     94
  WF centre and spread    1  ( -0.902512,  0.902512,  0.902512 )     1.97763461
  WF centre and spread    2  ( -0.000000, -0.000000, -0.000000 )     0.44602859
  WF centre and spread    3  ( -0.000000,  0.000000,  0.000000 )     0.48651630
  WF centre and spread    4  (  0.000000,  0.000000,  0.000000 )     0.48651630
  WF centre and spread    5  (  0.000000,  0.000000,  0.000000 )     0.44602860
  WF centre and spread    6  (  0.000000,  0.000000, -0.000000 )     0.48651627
  Sum of centres and spreads ( -0.902512,  0.902512,  0.902512 )     4.32924067

     94    -0.147E-11     0.0000039125        4.3292406139       8.64  <-- CONV
        O_D=      0.0542382 O_OD=      0.3215525 O_TOT=      4.3292406 <-- SPRD
 Delta: O_D= -0.7135006E-08 O_OD=  0.7133536E-08 O_TOT= -0.1469047E-11 <-- DLTA
 ------------------------------------------------------------------------------
 Cycle:     95
  WF centre and spread    1  ( -0.902512,  0.902512,  0.902512 )     1.97763452
  WF centre and spread    2  ( -0.000000, -0.000000, -0.000000 )     0.44602859
  WF centre and spread    3  ( -0.000000,  0.000000,  0.000000 )     0.48651633
  WF centre and spread    4  (  0.000000,  0.000000,  0.000000 )     0.48651633
  WF centre and spread    5  (  0.000000,  0.000000,  0.000000 )     0.44602861
  WF centre and spread    6  (  0.000000,  0.000000, -0.000000 )     0.48651629
  Sum of centres and spreads ( -0.902512,  0.902512,  0.902512 )     4.32924067

     95    -0.206E-11     0.0000038009        4.3292406139       8.68  <-- CONV
        O_D=      0.0542382 O_OD=      0.3215525 O_TOT=      4.3292406 <-- SPRD
 Delta: O_D= -0.9922582E-08 O_OD=  0.9920517E-08 O_TOT= -0.2064127E-11 <-- DLTA
 ------------------------------------------------------------------------------
 Cycle:     96
  WF centre and spread    1  ( -0.902512,  0.902512,  0.902512 )     1.97763441
  WF centre and spread    2  ( -0.000000, -0.000000, -0.000000 )     0.44602859
  WF centre and spread    3  ( -0.000000,  0.000000,  0.000000 )     0.48651636
  WF centre and spread    4  (  0.000000,  0.000000,  0.000000 )     0.48651636
  WF centre and spread    5  (  0.000000,  0.000000,  0.000000 )     0.44602861
  WF centre and spread    6  (  0.000000,  0.000000, -0.000000 )     0.48651633
  Sum of centres and spreads ( -0.902512,  0.902512,  0.902512 )     4.32924067

     96    -0.269E-11     0.0000037398        4.3292406139       8.72  <-- CONV
        O_D=      0.0542382 O_OD=      0.3215525 O_TOT=      4.3292406 <-- SPRD
 Delta: O_D= -0.1315283E-07 O_OD=  0.1315014E-07 O_TOT= -0.2685852E-11 <-- DLTA
 ------------------------------------------------------------------------------
 Cycle:     97
  WF centre and spread    1  ( -0.902512,  0.902512,  0.902512 )     1.97763440
  WF centre and spread    2  ( -0.000000, -0.000000, -0.000000 )     0.44602859
  WF centre and spread    3  ( -0.000000,  0.000000,  0.000000 )     0.48651637
  WF centre and spread    4  (  0.000000,  0.000000,  0.000000 )     0.48651637
  WF centre and spread    5  (  0.000000,  0.000000,  0.000000 )     0.44602861
  WF centre and spread    6  (  0.000000,  0.000000, -0.000000 )     0.48651633
  Sum of centres and spreads ( -0.902512,  0.902512,  0.902512 )     4.32924067

     97     0.351E-12     0.0000037340        4.3292406139       8.76  <-- CONV
        O_D=      0.0542382 O_OD=      0.3215525 O_TOT=      4.3292406 <-- SPRD
 Delta: O_D= -0.4877062E-09 O_OD=  0.4880568E-09 O_TOT=  0.3508305E-12 <-- DLTA
 ------------------------------------------------------------------------------
 Cycle:     98
  WF centre and spread    1  ( -0.902512,  0.902512,  0.902512 )     1.97763439
  WF centre and spread    2  ( -0.000000, -0.000000, -0.000000 )     0.44602859
  WF centre and spread    3  ( -0.000000,  0.000000,  0.000000 )     0.48651637
  WF centre and spread    4  (  0.000000,  0.000000,  0.000000 )     0.48651637
  WF centre and spread    5  (  0.000000,  0.000000,  0.000000 )     0.44602861
  WF centre and spread    6  (  0.000000,  0.000000, -0.000000 )     0.48651634
  Sum of centres and spreads ( -0.902512,  0.902512,  0.902512 )     4.32924067

     98     0.124E-13     0.0000037228        4.3292406139       8.79  <-- CONV
        O_D=      0.0542382 O_OD=      0.3215525 O_TOT=      4.3292406 <-- SPRD
 Delta: O_D= -0.1935751E-08 O_OD=  0.1935764E-08 O_TOT=  0.1243450E-13 <-- DLTA
 ------------------------------------------------------------------------------
 Cycle:     99
  WF centre and spread    1  ( -0.902512,  0.902512,  0.902512 )     1.97763436
  WF centre and spread    2  ( -0.000000, -0.000000, -0.000000 )     0.44602859
  WF centre and spread    3  ( -0.000000,  0.000000,  0.000000 )     0.48651638
  WF centre and spread    4  (  0.000000,  0.000000,  0.000000 )     0.48651638
  WF centre and spread    5  (  0.000000,  0.000000,  0.000000 )     0.44602861
  WF centre and spread    6  (  0.000000,  0.000000, -0.000000 )     0.48651635
  Sum of centres and spreads ( -0.902512,  0.902512,  0.902512 )     4.32924067

     99    -0.459E-12     0.0000036816        4.3292406139       8.83  <-- CONV
        O_D=      0.0542382 O_OD=      0.3215525 O_TOT=      4.3292406 <-- SPRD
 Delta: O_D= -0.4000808E-08 O_OD=  0.4000348E-08 O_TOT= -0.4591882E-12 <-- DLTA
 ------------------------------------------------------------------------------
 Cycle:    100
  WF centre and spread    1  ( -0.902512,  0.902512,  0.902512 )     1.97763430
  WF centre and spread    2  ( -0.000000, -0.000000, -0.000000 )     0.44602859
  WF centre and spread    3  ( -0.000000,  0.000000,  0.000000 )     0.48651640
  WF centre and spread    4  (  0.000000,  0.000000,  0.000000 )     0.48651640
  WF centre and spread    5  (  0.000000,  0.000000,  0.000000 )     0.44602861
  WF centre and spread    6  (  0.000000,  0.000000, -0.000000 )     0.48651637
  Sum of centres and spreads ( -0.902512,  0.902512,  0.902512 )     4.32924067

    100    -0.105E-11     0.0000036118        4.3292406139       8.87  <-- CONV
        O_D=      0.0542382 O_OD=      0.3215525 O_TOT=      4.3292406 <-- SPRD
 Delta: O_D= -0.6702893E-08 O_OD=  0.6701842E-08 O_TOT= -0.1051603E-11 <-- DLTA
 ------------------------------------------------------------------------------

 Writing checkpoint file Cu.chk... done

 Final State
  WF centre and spread    1  ( -0.902512,  0.902512,  0.902512 )     1.97763430
  WF centre and spread    2  ( -0.000000, -0.000000, -0.000000 )     0.44602859
  WF centre and spread    3  ( -0.000000,  0.000000,  0.000000 )     0.48651640
  WF centre and spread    4  (  0.000000,  0.000000,  0.000000 )     0.48651640
  WF centre and spread    5  (  0.000000,  0.000000,  0.000000 )     0.44602861
  WF centre and spread    6  (  0.000000,  0.000000, -0.000000 )     0.48651637
  Sum of centres and spreads ( -0.902512,  0.902512,  0.902512 )     4.32924067

         Spreads (Ang^2)       Omega I      =     3.953449906
        ================       Omega D      =     0.054238195
                               Omega OD     =     0.321552513
    Final Spread (Ang^2)       Omega Total  =     4.329240614
 ------------------------------------------------------------------------------
 Time for wannierise            3.884 (sec)

 Writing checkpoint file Cu.chk... done

 *---------------------------------------------------------------------------*
 |                               PLOTTING                                    |
 *---------------------------------------------------------------------------*


 Calculating interpolated band-structure

 Time to calculate interpolated band structure       1.463 (sec)

      Wannier Function Num:    1       Maximum Im/Re Ratio =    0.000003
      Wannier Function Num:    2       Maximum Im/Re Ratio =    0.000001
      Wannier Function Num:    3       Maximum Im/Re Ratio =    0.000001
      Wannier Function Num:    4       Maximum Im/Re Ratio =    0.000001
      Wannier Function Num:    5       Maximum Im/Re Ratio =    0.000001
      Wannier Function Num:    6       Maximum Im/Re Ratio =    0.000001
  
 Time for plotting             52.611 (sec)
 Total Execution Time          64.791 (sec)

 *===========================================================================*
 |                             TIMING INFORMATION                            |
 *===========================================================================*
 |    Tag                                                Ncalls      Time (s)|
 |---------------------------------------------------------------------------|
 |kmesh: get                                        :         1         2.482|
 |overlap: allocate                                 :         1         0.000|
 |overlap: read                                     :         1         0.590|
 |dis: main                                         :         1         4.989|
 |wann: main                                        :         1         3.884|
 |plot: main                                        :         1        52.611|
 *---------------------------------------------------------------------------*

 All done: wannier90 exiting
