
     Program PWSCF v.6.4 starts on 12May2022 at 12: 7:35 

     This program is part of the open-source Quantum ESPRESSO suite
     for quantum simulation of materials; please cite
         "P. Giannozzi et al., J. Phys.:Condens. Matter 21 395502 (2009);
         "P. Giannozzi et al., J. Phys.:Condens. Matter 29 465901 (2017);
          URL http://www.quantum-espresso.org", 
     in publications or presentations arising from this work. More details at
     http://www.quantum-espresso.org/quote

     Parallel version (MPI), running on    16 processors

     MPI processes distributed on     1 nodes
     R & G space division:  proc/nbgrp/npool/nimage =      16
     Waiting for input...
     Reading input from standard input

     Current dimensions of program PWSCF are:
     Max number of different atomic species (ntypx) = 10
     Max number of k-points (npk) =  40000
     Max angular momentum in pseudopotentials (lmaxx) =  3

     Atomic positions and unit cell read from directory:
     /scratch/irmik/jobs/614041/out/cubi2o4.save/
 
               file O.UPF: wavefunction(s)  2S 2P renormalized
               file Bi.UPF: wavefunction(s)  6P 5D renormalized
               file Cu.UPF: wavefunction(s)  4S 3D renormalized

     Subspace diagonalization in iterative solution of the eigenvalue problem:
     one sub-group per band group will be used
     scalapack distributed-memory algorithm (size of sub-group:  2*  2 procs)

 
     Parallelization info
     --------------------
     sticks:   dense  smooth     PW     G-vecs:    dense   smooth      PW
     Min         169     169     45                 4519     4519     625
     Max         170     170     46                 4522     4522     627
     Sum        2709    2709    725                72317    72317   10025
 


     bravais-lattice index     =            0
     lattice parameter (alat)  =       1.8897  a.u.
     unit-cell volume          =    2814.1876 (a.u.)^3
     number of atoms/cell      =           28
     number of atomic types    =            3
     number of electrons       =       260.00
     number of Kohn-Sham states=          156
     kinetic-energy cutoff     =      33.0900  Ry
     charge density cutoff     =     132.3600  Ry
     Exchange-correlation      = SLA PW PBX PBC ( 1  4  3  4 0 0)

     celldm(1)=   1.889726  celldm(2)=   0.000000  celldm(3)=   0.000000
     celldm(4)=   0.000000  celldm(5)=   0.000000  celldm(6)=   0.000000

     crystal axes: (cart. coord. in units of alat)
               a(1) = (   8.475000   0.000000   0.000000 )  
               a(2) = (   0.000000   8.475000   0.000000 )  
               a(3) = (   0.000000   0.000000   5.806000 )  

     reciprocal axes: (cart. coord. in units 2 pi/alat)
               b(1) = (  0.117994  0.000000  0.000000 )  
               b(2) = (  0.000000  0.117994  0.000000 )  
               b(3) = (  0.000000  0.000000  0.172236 )  


     PseudoPot. # 1 for O  read from file:
     /scratch/irmik/jobs/614041/pseudo/O.UPF
     MD5 check sum: e99d9cef9b487d1ca56f5b95ecd0fd7a
     Pseudo is Projector augmented-wave + core cor, Zval =  6.0
     Generated using "atomic" code by A. Dal Corso v.6.3
     Shape of augmentation charge: PSQ
     Using radial grid of 1095 points,  4 beta functions with: 
                l(1) =   0
                l(2) =   0
                l(3) =   1
                l(4) =   1
     Q(r) pseudized with 0 coefficients 


     PseudoPot. # 2 for Bi read from file:
     /scratch/irmik/jobs/614041/pseudo/Bi.UPF
     MD5 check sum: 266ded784ae3bc462508ed03f0f37963
     Pseudo is Projector augmented-wave + core cor, Zval = 15.0
     Generated using "atomic" code by A. Dal Corso v.6.2.2
     Shape of augmentation charge: PSQ
     Using radial grid of 1283 points,  6 beta functions with: 
                l(1) =   0
                l(2) =   0
                l(3) =   1
                l(4) =   1
                l(5) =   2
                l(6) =   2
     Q(r) pseudized with 0 coefficients 


     PseudoPot. # 3 for Cu read from file:
     /scratch/irmik/jobs/614041/pseudo/Cu.UPF
     MD5 check sum: cfffd1f38ee05704b3e17f46f1730a6f
     Pseudo is Projector augmented-wave + core cor, Zval = 11.0
     Generated using "atomic" code by A. Dal Corso v.6.3
     Shape of augmentation charge: PSQ
     Using radial grid of 1199 points,  6 beta functions with: 
                l(1) =   0
                l(2) =   0
                l(3) =   1
                l(4) =   1
                l(5) =   2
                l(6) =   2
     Q(r) pseudized with 0 coefficients 


     atomic species   valence    mass     pseudopotential
        O              6.00    16.00000     O ( 1.00)
        Bi            15.00   209.00000     Bi( 1.00)
        Cu            11.00    64.00000     Cu( 1.00)

     16 Sym. Ops., with inversion, found (14 have fractional translation)


                                    s                        frac. trans.

      isym =  1     identity                                     

 cryst.   s( 1) = (     1          0          0      )
                  (     0          1          0      )
                  (     0          0          1      )

 cart.    s( 1) = (  1.0000000  0.0000000  0.0000000 )
                  (  0.0000000  1.0000000  0.0000000 )
                  (  0.0000000  0.0000000  1.0000000 )


      isym =  2     180 deg rotation - cart. axis [0,0,1]        

 cryst.   s( 2) = (    -1          0          0      )    f =( -0.5000000 )
                  (     0         -1          0      )       ( -0.5000000 )
                  (     0          0          1      )       (  0.0000000 )

 cart.    s( 2) = ( -1.0000000  0.0000000  0.0000000 )    f =( -4.2375000 )
                  (  0.0000000 -1.0000000  0.0000000 )       ( -4.2375000 )
                  (  0.0000000  0.0000000  1.0000000 )       (  0.0000000 )


      isym =  3     180 deg rotation - cart. axis [0,1,0]        

 cryst.   s( 3) = (    -1          0          0      )    f =(  0.0000000 )
                  (     0          1          0      )       (  0.5000000 )
                  (     0          0         -1      )       (  0.5000000 )

 cart.    s( 3) = ( -1.0000000  0.0000000  0.0000000 )    f =(  0.0000000 )
                  (  0.0000000  1.0000000  0.0000000 )       (  4.2375000 )
                  (  0.0000000  0.0000000 -1.0000000 )       (  2.9030000 )


      isym =  4     180 deg rotation - cart. axis [1,0,0]        

 cryst.   s( 4) = (     1          0          0      )    f =( -0.5000000 )
                  (     0         -1          0      )       (  0.0000000 )
                  (     0          0         -1      )       (  0.5000000 )

 cart.    s( 4) = (  1.0000000  0.0000000  0.0000000 )    f =( -4.2375000 )
                  (  0.0000000 -1.0000000  0.0000000 )       (  0.0000000 )
                  (  0.0000000  0.0000000 -1.0000000 )       (  2.9030000 )


      isym =  5     180 deg rotation - cart. axis [1,1,0]        

 cryst.   s( 5) = (     0          1          0      )    f =( -0.5000000 )
                  (     1          0          0      )       (  0.5000000 )
                  (     0          0         -1      )       (  0.5000000 )

 cart.    s( 5) = (  0.0000000  1.0000000  0.0000000 )    f =( -4.2375000 )
                  (  1.0000000  0.0000000  0.0000000 )       (  4.2375000 )
                  (  0.0000000  0.0000000 -1.0000000 )       (  2.9030000 )


      isym =  6     180 deg rotation - cart. axis [1,-1,0]       

 cryst.   s( 6) = (     0         -1          0      )    f =(  0.0000000 )
                  (    -1          0          0      )       (  0.0000000 )
                  (     0          0         -1      )       (  0.5000000 )

 cart.    s( 6) = (  0.0000000 -1.0000000  0.0000000 )    f =(  0.0000000 )
                  ( -1.0000000  0.0000000  0.0000000 )       (  0.0000000 )
                  (  0.0000000  0.0000000 -1.0000000 )       (  2.9030000 )


      isym =  7      90 deg rotation - cart. axis [0,0,-1]       

 cryst.   s( 7) = (     0         -1          0      )    f =(  0.0000000 )
                  (     1          0          0      )       ( -0.5000000 )
                  (     0          0          1      )       (  0.0000000 )

 cart.    s( 7) = (  0.0000000  1.0000000  0.0000000 )    f =(  0.0000000 )
                  ( -1.0000000  0.0000000  0.0000000 )       ( -4.2375000 )
                  (  0.0000000  0.0000000  1.0000000 )       (  0.0000000 )


      isym =  8      90 deg rotation - cart. axis [0,0,1]        

 cryst.   s( 8) = (     0          1          0      )    f =( -0.5000000 )
                  (    -1          0          0      )       (  0.0000000 )
                  (     0          0          1      )       (  0.0000000 )

 cart.    s( 8) = (  0.0000000 -1.0000000  0.0000000 )    f =( -4.2375000 )
                  (  1.0000000  0.0000000  0.0000000 )       (  0.0000000 )
                  (  0.0000000  0.0000000  1.0000000 )       (  0.0000000 )


      isym =  9     inversion                                    

 cryst.   s( 9) = (    -1          0          0      )
                  (     0         -1          0      )
                  (     0          0         -1      )

 cart.    s( 9) = ( -1.0000000  0.0000000  0.0000000 )
                  (  0.0000000 -1.0000000  0.0000000 )
                  (  0.0000000  0.0000000 -1.0000000 )


      isym = 10     inv. 180 deg rotation - cart. axis [0,0,1]   

 cryst.   s(10) = (     1          0          0      )    f =( -0.5000000 )
                  (     0          1          0      )       (  0.5000000 )
                  (     0          0         -1      )       ( -0.0000000 )

 cart.    s(10) = (  1.0000000  0.0000000  0.0000000 )    f =( -4.2375000 )
                  (  0.0000000  1.0000000  0.0000000 )       (  4.2375000 )
                  (  0.0000000  0.0000000 -1.0000000 )       ( -0.0000000 )


      isym = 11     inv. 180 deg rotation - cart. axis [0,1,0]   

 cryst.   s(11) = (     1          0          0      )    f =(  0.0000000 )
                  (     0         -1          0      )       ( -0.5000000 )
                  (     0          0          1      )       ( -0.5000000 )

 cart.    s(11) = (  1.0000000  0.0000000  0.0000000 )    f =(  0.0000000 )
                  (  0.0000000 -1.0000000  0.0000000 )       ( -4.2375000 )
                  (  0.0000000  0.0000000  1.0000000 )       ( -2.9030000 )


      isym = 12     inv. 180 deg rotation - cart. axis [1,0,0]   

 cryst.   s(12) = (    -1          0          0      )    f =( -0.5000000 )
                  (     0          1          0      )       (  0.0000000 )
                  (     0          0          1      )       ( -0.5000000 )

 cart.    s(12) = ( -1.0000000  0.0000000  0.0000000 )    f =( -4.2375000 )
                  (  0.0000000  1.0000000  0.0000000 )       (  0.0000000 )
                  (  0.0000000  0.0000000  1.0000000 )       ( -2.9030000 )


      isym = 13     inv. 180 deg rotation - cart. axis [1,1,0]   

 cryst.   s(13) = (     0         -1          0      )    f =( -0.5000000 )
                  (    -1          0          0      )       ( -0.5000000 )
                  (     0          0          1      )       ( -0.5000000 )

 cart.    s(13) = (  0.0000000 -1.0000000  0.0000000 )    f =( -4.2375000 )
                  ( -1.0000000  0.0000000  0.0000000 )       ( -4.2375000 )
                  (  0.0000000  0.0000000  1.0000000 )       ( -2.9030000 )


      isym = 14     inv. 180 deg rotation - cart. axis [1,-1,0]  

 cryst.   s(14) = (     0          1          0      )    f =(  0.0000000 )
                  (     1          0          0      )       (  0.0000000 )
                  (     0          0          1      )       ( -0.5000000 )

 cart.    s(14) = (  0.0000000  1.0000000  0.0000000 )    f =(  0.0000000 )
                  (  1.0000000  0.0000000  0.0000000 )       (  0.0000000 )
                  (  0.0000000  0.0000000  1.0000000 )       ( -2.9030000 )


      isym = 15     inv.  90 deg rotation - cart. axis [0,0,-1]  

 cryst.   s(15) = (     0          1          0      )    f =(  0.0000000 )
                  (    -1          0          0      )       (  0.5000000 )
                  (     0          0         -1      )       ( -0.0000000 )

 cart.    s(15) = (  0.0000000 -1.0000000  0.0000000 )    f =(  0.0000000 )
                  (  1.0000000  0.0000000  0.0000000 )       (  4.2375000 )
                  (  0.0000000  0.0000000 -1.0000000 )       ( -0.0000000 )


      isym = 16     inv.  90 deg rotation - cart. axis [0,0,1]   

 cryst.   s(16) = (     0         -1          0      )    f =( -0.5000000 )
                  (     1          0          0      )       (  0.0000000 )
                  (     0          0         -1      )       ( -0.0000000 )

 cart.    s(16) = (  0.0000000  1.0000000  0.0000000 )    f =( -4.2375000 )
                  ( -1.0000000  0.0000000  0.0000000 )       (  0.0000000 )
                  (  0.0000000  0.0000000 -1.0000000 )       ( -0.0000000 )


   Cartesian axes

     site n.     atom                  positions (alat units)
         1           O   tau(   1) = (   0.4152750   1.1949750   0.5167340  )
         2           O   tau(   2) = (   3.8222250   3.0425250   0.5167340  )
         3           O   tau(   3) = (   3.0425250   0.4152750   0.5167340  )
         4           O   tau(   4) = (   1.1949750   3.8222250   0.5167340  )
         5           O   tau(   5) = (   8.0597250   5.4324750   2.3862660  )
         6           O   tau(   6) = (   4.6527750   7.2800250   2.3862660  )
         7           O   tau(   7) = (   5.4324750   4.6527750   2.3862660  )
         8           O   tau(   8) = (   7.2800250   8.0597250   2.3862660  )
         9           O   tau(   9) = (   8.0597250   7.2800250   5.2892660  )
        10           O   tau(  10) = (   4.6527750   5.4324750   5.2892660  )
        11           O   tau(  11) = (   5.4324750   8.0597250   5.2892660  )
        12           O   tau(  12) = (   7.2800250   4.6527750   5.2892660  )
        13           O   tau(  13) = (   0.4152750   3.0425250   3.4197340  )
        14           O   tau(  14) = (   3.8222250   1.1949750   3.4197340  )
        15           O   tau(  15) = (   3.0425250   3.8222250   3.4197340  )
        16           O   tau(  16) = (   1.1949750   0.4152750   3.4197340  )
        17           Bi  tau(  17) = (   3.5425500   4.9324500   1.4515000  )
        18           Bi  tau(  18) = (   0.6949500   7.7800500   1.4515000  )
        19           Bi  tau(  19) = (   7.7800500   3.5425500   1.4515000  )
        20           Bi  tau(  20) = (   4.9324500   0.6949500   1.4515000  )
        21           Bi  tau(  21) = (   4.9324500   3.5425500   4.3545000  )
        22           Bi  tau(  22) = (   7.7800500   0.6949500   4.3545000  )
        23           Bi  tau(  23) = (   0.6949500   4.9324500   4.3545000  )
        24           Bi  tau(  24) = (   3.5425500   7.7800500   4.3545000  )
        25           Cu  tau(  25) = (   2.1187500   2.1187500   0.4528680  )
        26           Cu  tau(  26) = (   6.3562500   6.3562500   2.4501320  )
        27           Cu  tau(  27) = (   6.3562500   6.3562500   5.3531320  )
        28           Cu  tau(  28) = (   2.1187500   2.1187500   3.3558680  )

   Crystallographic axes

     site n.     atom                  positions (cryst. coord.)
         1           O   tau(   1) = (  0.0490000  0.1410000  0.0890000  )
         2           O   tau(   2) = (  0.4510000  0.3590000  0.0890000  )
         3           O   tau(   3) = (  0.3590000  0.0490000  0.0890000  )
         4           O   tau(   4) = (  0.1410000  0.4510000  0.0890000  )
         5           O   tau(   5) = (  0.9510000  0.6410000  0.4110000  )
         6           O   tau(   6) = (  0.5490000  0.8590000  0.4110000  )
         7           O   tau(   7) = (  0.6410000  0.5490000  0.4110000  )
         8           O   tau(   8) = (  0.8590000  0.9510000  0.4110000  )
         9           O   tau(   9) = (  0.9510000  0.8590000  0.9110000  )
        10           O   tau(  10) = (  0.5490000  0.6410000  0.9110000  )
        11           O   tau(  11) = (  0.6410000  0.9510000  0.9110000  )
        12           O   tau(  12) = (  0.8590000  0.5490000  0.9110000  )
        13           O   tau(  13) = (  0.0490000  0.3590000  0.5890000  )
        14           O   tau(  14) = (  0.4510000  0.1410000  0.5890000  )
        15           O   tau(  15) = (  0.3590000  0.4510000  0.5890000  )
        16           O   tau(  16) = (  0.1410000  0.0490000  0.5890000  )
        17           Bi  tau(  17) = (  0.4180000  0.5820000  0.2500000  )
        18           Bi  tau(  18) = (  0.0820000  0.9180000  0.2500000  )
        19           Bi  tau(  19) = (  0.9180000  0.4180000  0.2500000  )
        20           Bi  tau(  20) = (  0.5820000  0.0820000  0.2500000  )
        21           Bi  tau(  21) = (  0.5820000  0.4180000  0.7500000  )
        22           Bi  tau(  22) = (  0.9180000  0.0820000  0.7500000  )
        23           Bi  tau(  23) = (  0.0820000  0.5820000  0.7500000  )
        24           Bi  tau(  24) = (  0.4180000  0.9180000  0.7500000  )
        25           Cu  tau(  25) = (  0.2500000  0.2500000  0.0780000  )
        26           Cu  tau(  26) = (  0.7500000  0.7500000  0.4220000  )
        27           Cu  tau(  27) = (  0.7500000  0.7500000  0.9220000  )
        28           Cu  tau(  28) = (  0.2500000  0.2500000  0.5780000  )

     number of k points=    31  Methfessel-Paxton smearing, width (Ry)=  0.0010
                       cart. coord. in units 2pi/alat
        k(    1) = (   0.0000000   0.0000000   0.0000000), wk =   0.0645161
        k(    2) = (   0.0000000   0.0019666   0.0000000), wk =   0.0645161
        k(    3) = (   0.0000000   0.0039331   0.0000000), wk =   0.0645161
        k(    4) = (   0.0000000   0.0058997   0.0000000), wk =   0.0645161
        k(    5) = (   0.0000000   0.0078663   0.0000000), wk =   0.0645161
        k(    6) = (   0.0000000   0.0098328   0.0000000), wk =   0.0645161
        k(    7) = (   0.0000000   0.0117994   0.0000000), wk =   0.0645161
        k(    8) = (   0.0000000   0.0137660   0.0000000), wk =   0.0645161
        k(    9) = (   0.0000000   0.0157325   0.0000000), wk =   0.0645161
        k(   10) = (   0.0000000   0.0176991   0.0000000), wk =   0.0645161
        k(   11) = (   0.0000000   0.0196657   0.0000000), wk =   0.0645161
        k(   12) = (   0.0000000   0.0216323   0.0000000), wk =   0.0645161
        k(   13) = (   0.0000000   0.0235988   0.0000000), wk =   0.0645161
        k(   14) = (   0.0000000   0.0255654   0.0000000), wk =   0.0645161
        k(   15) = (   0.0000000   0.0275320   0.0000000), wk =   0.0645161
        k(   16) = (   0.0000000   0.0294985   0.0000000), wk =   0.0645161
        k(   17) = (   0.0000000   0.0314651   0.0000000), wk =   0.0645161
        k(   18) = (   0.0000000   0.0334317   0.0000000), wk =   0.0645161
        k(   19) = (   0.0000000   0.0353982   0.0000000), wk =   0.0645161
        k(   20) = (   0.0000000   0.0373648   0.0000000), wk =   0.0645161
        k(   21) = (   0.0000000   0.0393314   0.0000000), wk =   0.0645161
        k(   22) = (   0.0000000   0.0412979   0.0000000), wk =   0.0645161
        k(   23) = (   0.0000000   0.0432645   0.0000000), wk =   0.0645161
        k(   24) = (   0.0000000   0.0452311   0.0000000), wk =   0.0645161
        k(   25) = (   0.0000000   0.0471976   0.0000000), wk =   0.0645161
        k(   26) = (   0.0000000   0.0491642   0.0000000), wk =   0.0645161
        k(   27) = (   0.0000000   0.0511308   0.0000000), wk =   0.0645161
        k(   28) = (   0.0000000   0.0530973   0.0000000), wk =   0.0645161
        k(   29) = (   0.0000000   0.0550639   0.0000000), wk =   0.0645161
        k(   30) = (   0.0000000   0.0570305   0.0000000), wk =   0.0645161
        k(   31) = (   0.0000000   0.0589971   0.0000000), wk =   0.0645161

                       cryst. coord.
        k(    1) = (   0.0000000   0.0000000   0.0000000), wk =   0.0645161
        k(    2) = (   0.0000000   0.0166667   0.0000000), wk =   0.0645161
        k(    3) = (   0.0000000   0.0333333   0.0000000), wk =   0.0645161
        k(    4) = (   0.0000000   0.0500000   0.0000000), wk =   0.0645161
        k(    5) = (   0.0000000   0.0666667   0.0000000), wk =   0.0645161
        k(    6) = (   0.0000000   0.0833333   0.0000000), wk =   0.0645161
        k(    7) = (   0.0000000   0.1000000   0.0000000), wk =   0.0645161
        k(    8) = (   0.0000000   0.1166667   0.0000000), wk =   0.0645161
        k(    9) = (   0.0000000   0.1333333   0.0000000), wk =   0.0645161
        k(   10) = (   0.0000000   0.1500000   0.0000000), wk =   0.0645161
        k(   11) = (   0.0000000   0.1666667   0.0000000), wk =   0.0645161
        k(   12) = (   0.0000000   0.1833333   0.0000000), wk =   0.0645161
        k(   13) = (   0.0000000   0.2000000   0.0000000), wk =   0.0645161
        k(   14) = (   0.0000000   0.2166667   0.0000000), wk =   0.0645161
        k(   15) = (   0.0000000   0.2333333   0.0000000), wk =   0.0645161
        k(   16) = (   0.0000000   0.2500000   0.0000000), wk =   0.0645161
        k(   17) = (   0.0000000   0.2666667   0.0000000), wk =   0.0645161
        k(   18) = (   0.0000000   0.2833333   0.0000000), wk =   0.0645161
        k(   19) = (   0.0000000   0.3000000   0.0000000), wk =   0.0645161
        k(   20) = (   0.0000000   0.3166667   0.0000000), wk =   0.0645161
        k(   21) = (   0.0000000   0.3333333   0.0000000), wk =   0.0645161
        k(   22) = (   0.0000000   0.3500000   0.0000000), wk =   0.0645161
        k(   23) = (   0.0000000   0.3666667   0.0000000), wk =   0.0645161
        k(   24) = (   0.0000000   0.3833333   0.0000000), wk =   0.0645161
        k(   25) = (   0.0000000   0.4000000   0.0000000), wk =   0.0645161
        k(   26) = (   0.0000000   0.4166667   0.0000000), wk =   0.0645161
        k(   27) = (   0.0000000   0.4333333   0.0000000), wk =   0.0645161
        k(   28) = (   0.0000000   0.4500000   0.0000000), wk =   0.0645161
        k(   29) = (   0.0000000   0.4666667   0.0000000), wk =   0.0645161
        k(   30) = (   0.0000000   0.4833333   0.0000000), wk =   0.0645161
        k(   31) = (   0.0000000   0.5000000   0.0000000), wk =   0.0645161

     Dense  grid:    72317 G-vectors     FFT dimensions: (  60,  60,  48)

     Dynamical RAM for                 wfc:       1.34 MB

     Dynamical RAM for     wfc (w. buffer):       1.34 MB

     Dynamical RAM for           str. fact:       0.21 MB

     Dynamical RAM for           local pot:       0.00 MB

     Dynamical RAM for          nlocal pot:       2.97 MB

     Dynamical RAM for                qrad:       0.84 MB

     Dynamical RAM for          rho,v,vnew:       0.45 MB

     Dynamical RAM for           G-vectors:       0.29 MB

     Dynamical RAM for          h,s,v(r/c):       4.46 MB

     Dynamical RAM for          <psi|beta>:       0.82 MB

     Dynamical RAM for                 psi:       5.38 MB

     Dynamical RAM for                hpsi:       5.38 MB

     Dynamical RAM for                spsi:       5.38 MB

     Dynamical RAM for      wfcinit/wfcrot:       3.64 MB

     Dynamical RAM for           addusdens:      13.94 MB

     Estimated static dynamical RAM per process >       6.79 MB

     Estimated max dynamical RAM per process >      28.21 MB

     Estimated total dynamical RAM >     451.33 MB

     Check: negative core charge=   -0.000070

     The potential is recalculated from file :
     /scratch/irmik/jobs/614041/out/cubi2o4.save/charge-density

     Starting wfcs are  172 randomized atomic wfcs
     Checking if some PAW data can be deallocated... 
       PAW data deallocated on    8 nodes for type:  1
       PAW data deallocated on   12 nodes for type:  2
       PAW data deallocated on   12 nodes for type:  3

     Band Structure Calculation
     Davidson diagonalization with overlap

     Computing kpt #:     1
     total cpu time spent up to now is        8.3 secs

     Computing kpt #:     2
     total cpu time spent up to now is       12.8 secs

     Computing kpt #:     3
     total cpu time spent up to now is       17.3 secs

     Computing kpt #:     4
     total cpu time spent up to now is       21.8 secs

     Computing kpt #:     5
     total cpu time spent up to now is       26.4 secs

     Computing kpt #:     6
     total cpu time spent up to now is       31.1 secs

     Computing kpt #:     7
     total cpu time spent up to now is       35.7 secs

     Computing kpt #:     8
     total cpu time spent up to now is       40.4 secs

     Computing kpt #:     9
     total cpu time spent up to now is       45.2 secs

     Computing kpt #:    10
     total cpu time spent up to now is       49.8 secs

     Computing kpt #:    11
     total cpu time spent up to now is       54.5 secs

     Computing kpt #:    12
     total cpu time spent up to now is       59.3 secs

     Computing kpt #:    13
     total cpu time spent up to now is       64.0 secs

     Computing kpt #:    14
     total cpu time spent up to now is       68.7 secs

     Computing kpt #:    15
     total cpu time spent up to now is       73.4 secs

     Computing kpt #:    16
     total cpu time spent up to now is       78.1 secs

     Computing kpt #:    17
     total cpu time spent up to now is       82.9 secs

     Computing kpt #:    18
     total cpu time spent up to now is       87.7 secs

     Computing kpt #:    19
     total cpu time spent up to now is       92.5 secs

     Computing kpt #:    20
     total cpu time spent up to now is       97.4 secs

     Computing kpt #:    21
     total cpu time spent up to now is      102.7 secs

     Computing kpt #:    22
     total cpu time spent up to now is      108.0 secs

     Computing kpt #:    23
     total cpu time spent up to now is      112.8 secs

     Computing kpt #:    24
     total cpu time spent up to now is      117.7 secs

     Computing kpt #:    25
     total cpu time spent up to now is      122.5 secs

     Computing kpt #:    26
     total cpu time spent up to now is      127.4 secs

     Computing kpt #:    27
     total cpu time spent up to now is      132.2 secs

     Computing kpt #:    28
     total cpu time spent up to now is      136.9 secs

     Computing kpt #:    29
     total cpu time spent up to now is      141.5 secs

     Computing kpt #:    30
     total cpu time spent up to now is      146.3 secs

     Computing kpt #:    31
     total cpu time spent up to now is      151.0 secs

     ethr =  3.85E-12,  avg # of iterations = 24.7

     total cpu time spent up to now is      151.0 secs

     End of band structure calculation

          k = 0.0000 0.0000 0.0000 (  9037 PWs)   bands (ev):

   -12.9276 -12.8900 -12.8779 -12.8779 -12.8747 -12.8747 -12.8609 -12.8465
   -12.8336 -12.8057 -12.8057 -12.7905 -12.6529 -12.6529 -12.6356 -12.6346
   -12.6250 -12.6156 -12.6156 -12.6022 -12.5889 -12.5889 -12.5857 -12.5844
   -12.5844 -12.5809 -12.5694 -12.5685 -12.5685 -12.5671 -12.5658 -12.5408
   -12.5309 -12.5277 -12.5178 -12.5178 -12.5108 -12.5108 -12.5086 -12.5029
    -9.7675  -9.2616  -9.2616  -8.8745  -8.3494  -8.2856  -7.8544  -7.8439
    -7.8439  -7.8285  -7.8285  -7.6009  -7.4921  -7.4921  -7.4317  -7.4192
    -1.4070  -0.7493  -0.7493  -0.5343   0.0761   0.7125   0.8637   0.8637
     3.3315   3.7535   4.1865   4.1979   4.1979   4.5903   4.6148   4.6804
     4.7590   4.7879   4.8051   4.8051   5.0045   5.0045   5.0636   5.1723
     5.4599   5.5906   5.5906   5.9378   5.9823   5.9823   6.1591   6.1664
     6.4088   6.4531   6.4531   6.6458   6.6458   6.7492   6.9200   6.9631
     6.9631   7.0158   7.0351   7.0400   7.0400   7.0403   7.1246   7.2445
     7.2445   7.4378   7.4870   7.5653   7.6868   7.8158   7.8158   8.0553
     8.0579   8.0579   8.1509   8.1674   8.3120   8.3120   8.5801   8.5801
     8.8039   8.8039   8.8421   8.8506   8.9206   9.1023   9.2130   9.2130
     9.9825  10.4337  10.5734  10.6315  11.6418  12.1493  12.6827  12.9765
    13.3179  13.3179  13.3717  13.7355  14.3101  14.3101  14.3670  14.4380
    14.5826  14.5826  14.6480  15.0207  15.0241  15.0241  15.4049  15.4851
    15.7730  15.8354  15.8354  15.9235

          k = 0.0000 0.0020 0.0000 (  9051 PWs)   bands (ev):

   -12.9279 -12.8936 -12.8811 -12.8806 -12.8779 -12.8748 -12.8620 -12.8492
   -12.8368 -12.8078 -12.8074 -12.7906 -12.6572 -12.6566 -12.6382 -12.6347
   -12.6271 -12.6172 -12.6171 -12.6071 -12.5934 -12.5891 -12.5865 -12.5846
   -12.5845 -12.5830 -12.5718 -12.5714 -12.5709 -12.5690 -12.5658 -12.5418
   -12.5414 -12.5280 -12.5239 -12.5209 -12.5205 -12.5204 -12.5092 -12.5057
    -9.7672  -9.2622  -9.2615  -8.8750  -8.3488  -8.2858  -7.8604  -7.8438
    -7.8381  -7.8289  -7.8283  -7.6017  -7.4924  -7.4921  -7.4320  -7.4195
    -1.4067  -0.7499  -0.7493  -0.5347   0.0765   0.7126   0.8626   0.8634
     3.3310   3.7514   4.1838   4.1972   4.1985   4.5896   4.6149   4.6793
     4.7589   4.7751   4.8050   4.8150   5.0017   5.0050   5.0646   5.1703
     5.4598   5.5893   5.5910   5.9398   5.9777   5.9817   6.1617   6.1639
     6.3948   6.4530   6.4665   6.6429   6.6429   6.7512   6.9207   6.9599
     6.9621   7.0159   7.0322   7.0362   7.0403   7.0437   7.1249   7.2422
     7.2439   7.4371   7.4860   7.5608   7.6866   7.8147   7.8159   8.0407
     8.0568   8.0709   8.1488   8.1669   8.3112   8.3119   8.5795   8.5795
     8.8013   8.8016   8.8417   8.8507   8.9192   9.1019   9.2110   9.2119
     9.9829  10.4329  10.5725  10.6311  11.6427  12.1503  12.6817  12.9755
    13.3177  13.3181  13.3688  13.7345  14.3089  14.3126  14.3662  14.4373
    14.5804  14.5813  14.6481  15.0170  15.0237  15.0247  15.4061  15.4871
    15.7708  15.8337  15.8344  15.9239

          k = 0.0000 0.0039 0.0000 (  9047 PWs)   bands (ev):

   -12.9273 -12.8936 -12.8811 -12.8803 -12.8770 -12.8735 -12.8613 -12.8481
   -12.8368 -12.8078 -12.8074 -12.7852 -12.6555 -12.6532 -12.6381 -12.6345
   -12.6271 -12.6170 -12.6168 -12.6070 -12.5919 -12.5875 -12.5859 -12.5846
   -12.5845 -12.5829 -12.5719 -12.5709 -12.5694 -12.5689 -12.5617 -12.5417
   -12.5411 -12.5279 -12.5241 -12.5208 -12.5204 -12.5201 -12.5091 -12.5021
    -9.7665  -9.2639  -9.2609  -8.8761  -8.3466  -8.2853  -7.8697  -7.8433
    -7.8296  -7.8288  -7.8271  -7.6025  -7.4927  -7.4916  -7.4319  -7.4200
    -1.4056  -0.7516  -0.7491  -0.5353   0.0781   0.7131   0.8608   0.8632
     3.3330   3.7558   4.1796   4.1966   4.2021   4.5877   4.6161   4.6768
     4.7581   4.7592   4.8049   4.8355   4.9968   5.0097   5.0680   5.1695
     5.4615   5.5865   5.5931   5.9459   5.9661   5.9809   6.1609   6.1691
     6.3713   6.4535   6.4912   6.6381   6.6388   6.7589   6.9232   6.9528
     6.9610   7.0163   7.0289   7.0333   7.0445   7.0545   7.1270   7.2408
     7.2465   7.4396   7.4866   7.5611   7.6868   7.8129   7.8177   8.0257
     8.0570   8.0862   8.1473   8.1668   8.3100   8.3129   8.5788   8.5790
     8.8001   8.8013   8.8430   8.8514   8.9186   9.1026   9.2079   9.2110
     9.9858  10.4343  10.5729  10.6310  11.6477  12.1534  12.6803  12.9741
    13.3179  13.3191  13.3633  13.7322  14.3068  14.3204  14.3645  14.4356
    14.5762  14.5800  14.6487  15.0068  15.0286  15.0288  15.4099  15.4955
    15.7696  15.8329  15.8335  15.9262

          k = 0.0000 0.0059 0.0000 (  9051 PWs)   bands (ev):

   -12.9275 -12.8957 -12.8825 -12.8823 -12.8764 -12.8722 -12.8623 -12.8483
   -12.8376 -12.8108 -12.8099 -12.7855 -12.6556 -12.6531 -12.6387 -12.6368
   -12.6273 -12.6162 -12.6139 -12.6059 -12.5914 -12.5870 -12.5865 -12.5862
   -12.5859 -12.5838 -12.5745 -12.5741 -12.5704 -12.5694 -12.5629 -12.5417
   -12.5415 -12.5287 -12.5243 -12.5212 -12.5209 -12.5202 -12.5153 -12.5019
    -9.7653  -9.2668  -9.2599  -8.8780  -8.3436  -8.2845  -7.8795  -7.8427
    -7.8309  -7.8254  -7.8195  -7.6040  -7.4933  -7.4909  -7.4320  -7.4210
    -1.4038  -0.7544  -0.7487  -0.5363   0.0808   0.7134   0.8578   0.8629
     3.3355   3.7579   4.1752   4.1956   4.2065   4.5831   4.6176   4.6729
     4.7427   4.7596   4.8048   4.8572   4.9894   5.0146   5.0716   5.1665
     5.4639   5.5818   5.5962   5.9494   5.9543   5.9795   6.1555   6.1786
     6.3463   6.4542   6.5178   6.6311   6.6331   6.7691   6.9215   6.9425
     6.9605   7.0166   7.0252   7.0276   7.0488   7.0698   7.1306   7.2380
     7.2504   7.4433   7.4873   7.5586   7.6850   7.8098   7.8204   8.0096
     8.0573   8.1014   8.1442   8.1666   8.3078   8.3139   8.5769   8.5773
     8.7969   8.7997   8.8438   8.8524   8.9166   9.1029   9.2033   9.2084
     9.9891  10.4353  10.5729  10.6304  11.6554  12.1583  12.6764  12.9710
    13.3180  13.3208  13.3533  13.7283  14.3039  14.3331  14.3607  14.4329
    14.5688  14.5780  14.6497  14.9905  15.0353  15.0363  15.4151  15.5095
    15.7655  15.8304  15.8339  15.9302

          k = 0.0000 0.0079 0.0000 (  9043 PWs)   bands (ev):

   -12.9277 -12.8944 -12.8822 -12.8809 -12.8756 -12.8661 -12.8621 -12.8461
   -12.8372 -12.8110 -12.8096 -12.7803 -12.6532 -12.6452 -12.6382 -12.6370
   -12.6252 -12.6149 -12.6140 -12.6039 -12.5969 -12.5904 -12.5895 -12.5864
   -12.5831 -12.5749 -12.5740 -12.5736 -12.5701 -12.5690 -12.5591 -12.5414
   -12.5388 -12.5292 -12.5185 -12.5183 -12.5177 -12.5177 -12.5152 -12.4947
    -9.7636  -9.2704  -9.2585  -8.8806  -8.3392  -8.2832  -7.8894  -7.8414
    -7.8326  -7.8227  -7.8101  -7.6059  -7.4938  -7.4898  -7.4320  -7.4223
    -1.4014  -0.7582  -0.7481  -0.5377   0.0848   0.7145   0.8537   0.8625
     3.3399   3.7630   4.1683   4.1944   4.2122   4.5782   4.6200   4.6691
     4.7254   4.7608   4.8044   4.8807   4.9809   5.0258   5.0767   5.1648
     5.4677   5.5779   5.6009   5.9277   5.9685   5.9775   6.1487   6.1883
     6.3218   6.4556   6.5452   6.6221   6.6282   6.7807   6.9225   6.9335
     6.9627   7.0169   7.0223   7.0223   7.0545   7.0882   7.1353   7.2351
     7.2562   7.4485   7.4890   7.5580   7.6857   7.8054   7.8243   7.9945
     8.0576   8.1165   8.1400   8.1668   8.3046   8.3164   8.5760   8.5773
     8.7940   8.7988   8.8450   8.8534   8.9167   9.1019   9.1964   9.2062
     9.9952  10.4382  10.5737  10.6290  11.6666  12.1654  12.6717  12.9677
    13.3186  13.3233  13.3392  13.7232  14.2994  14.3499  14.3571  14.4298
    14.5608  14.5755  14.6514  14.9701  15.0446  15.0466  15.4238  15.5253
    15.7618  15.8265  15.8364  15.9359

          k = 0.0000 0.0098 0.0000 (  9027 PWs)   bands (ev):

   -12.9218 -12.8893 -12.8803 -12.8788 -12.8708 -12.8629 -12.8612 -12.8421
   -12.8361 -12.8109 -12.8073 -12.7764 -12.6509 -12.6430 -12.6342 -12.6328
   -12.6207 -12.6125 -12.6076 -12.6009 -12.5954 -12.5891 -12.5870 -12.5828
   -12.5764 -12.5746 -12.5725 -12.5687 -12.5685 -12.5672 -12.5545 -12.5379
   -12.5339 -12.5277 -12.5166 -12.5161 -12.5147 -12.5137 -12.5108 -12.4907
    -9.7614  -9.2753  -9.2567  -8.8839  -8.3338  -8.2816  -7.8992  -7.8402
    -7.8347  -7.8191  -7.8001  -7.6080  -7.4946  -7.4882  -7.4319  -7.4237
    -1.3981  -0.7630  -0.7474  -0.5394   0.0896   0.7160   0.8485   0.8619
     3.3450   3.7703   4.1602   4.1937   4.2201   4.5718   4.6230   4.6645
     4.7120   4.7619   4.8060   4.9097   4.9709   5.0380   5.0821   5.1606
     5.4726   5.5739   5.6062   5.9042   5.9764   5.9839   6.1406   6.1972
     6.2982   6.4585   6.5736   6.6117   6.6268   6.7935   6.9211   6.9266
     6.9680   7.0135   7.0173   7.0193   7.0605   7.1093   7.1411   7.2318
     7.2641   7.4551   7.4918   7.5548   7.6870   7.8002   7.8299   7.9801
     8.0578   8.1326   8.1348   8.1672   8.3016   8.3199   8.5745   8.5763
     8.7912   8.7984   8.8464   8.8558   8.9159   9.1029   9.1892   9.2042
    10.0019  10.4400  10.5752  10.6291  11.6805  12.1744  12.6659  12.9646
    13.3191  13.3235  13.3265  13.7170  14.2932  14.3513  14.3696  14.4285
    14.5502  14.5746  14.6527  14.9470  15.0566  15.0601  15.4340  15.5430
    15.7572  15.8232  15.8408  15.9430

          k = 0.0000 0.0118 0.0000 (  9035 PWs)   bands (ev):

   -12.9256 -12.8897 -12.8805 -12.8802 -12.8737 -12.8664 -12.8632 -12.8421
   -12.8363 -12.8130 -12.8083 -12.7769 -12.6513 -12.6430 -12.6378 -12.6358
   -12.6213 -12.6125 -12.6103 -12.6016 -12.5976 -12.5960 -12.5906 -12.5830
   -12.5785 -12.5763 -12.5762 -12.5691 -12.5687 -12.5681 -12.5557 -12.5379
   -12.5352 -12.5290 -12.5184 -12.5166 -12.5145 -12.5142 -12.5129 -12.4907
    -9.7588  -9.2813  -9.2545  -8.8879  -8.3275  -8.2797  -7.9103  -7.8390
    -7.8374  -7.8151  -7.7909  -7.6111  -7.4958  -7.4867  -7.4322  -7.4258
    -1.3943  -0.7694  -0.7466  -0.5417   0.0953   0.7175   0.8419   0.8611
     3.3493   3.7785   4.1493   4.1917   4.2275   4.5626   4.6247   4.6600
     4.6980   4.7616   4.8056   4.9316   4.9588   5.0507   5.0863   5.1539
     5.4777   5.5679   5.6110   5.8785   5.9728   6.0007   6.1311   6.2029
     6.2749   6.4596   6.5980   6.5992   6.6247   6.8052   6.9160   6.9199
     6.9751   7.0019   7.0156   7.0175   7.0666   7.1305   7.1468   7.2264
     7.2709   7.4611   7.4925   7.5499   7.6875   7.7928   7.8360   7.9649
     8.0577   8.1269   8.1471   8.1669   8.2962   8.3232   8.5703   8.5734
     8.7861   8.7967   8.8476   8.8573   8.9137   9.1017   9.1779   9.1993
    10.0091  10.4418  10.5739  10.6262  11.6971  12.1849  12.6586  12.9589
    13.3041  13.3194  13.3291  13.7096  14.2832  14.3429  14.3853  14.4314
    14.5368  14.5721  14.6523  14.9215  15.0702  15.0751  15.4446  15.5578
    15.7510  15.8177  15.8436  15.9486

          k = 0.0000 0.0138 0.0000 (  9023 PWs)   bands (ev):

   -12.9227 -12.8888 -12.8804 -12.8765 -12.8712 -12.8624 -12.8563 -12.8405
   -12.8359 -12.8072 -12.8022 -12.7680 -12.6482 -12.6412 -12.6376 -12.6364
   -12.6239 -12.6099 -12.6089 -12.6036 -12.5963 -12.5888 -12.5833 -12.5812
   -12.5779 -12.5739 -12.5701 -12.5682 -12.5668 -12.5629 -12.5418 -12.5377
   -12.5319 -12.5293 -12.5198 -12.5176 -12.5139 -12.5137 -12.5123 -12.4959
    -9.7556  -9.2883  -9.2519  -8.8926  -8.3198  -8.2774  -7.9202  -7.8398
    -7.8371  -7.8102  -7.7815  -7.6145  -7.4972  -7.4846  -7.4317  -7.4281
    -1.3896  -0.7765  -0.7457  -0.5442   0.1029   0.7199   0.8343   0.8605
     3.3559   3.7904   4.1397   4.1898   4.2372   4.5534   4.6276   4.6557
     4.6866   4.7609   4.8073   4.9471   4.9561   5.0654   5.0911   5.1475
     5.4845   5.5634   5.6153   5.8533   5.9700   6.0205   6.1253   6.2055
     6.2533   6.4619   6.5856   6.6238   6.6270   6.8167   6.9097   6.9156
     6.9824   6.9892   7.0132   7.0178   7.0747   7.1539   7.1542   7.2224
     7.2799   7.4704   7.4968   7.5455   7.6883   7.7852   7.8434   7.9507
     8.0590   8.1206   8.1614   8.1665   8.2910   8.3279   8.5675   8.5704
     8.7819   8.7953   8.8497   8.8599   8.9146   9.1028   9.1650   9.1953
    10.0184  10.4464  10.5746  10.6243  11.7171  12.1971  12.6520  12.9528
    13.2847  13.3199  13.3329  13.7022  14.2718  14.3382  14.3913  14.4476
    14.5229  14.5712  14.6529  14.8972  15.0858  15.0922  15.4582  15.5712
    15.7453  15.8115  15.8514  15.9562

          k = 0.0000 0.0157 0.0000 (  9021 PWs)   bands (ev):

   -12.9221 -12.8881 -12.8806 -12.8794 -12.8683 -12.8625 -12.8571 -12.8402
   -12.8359 -12.8076 -12.8025 -12.7685 -12.6435 -12.6388 -12.6374 -12.6361
   -12.6231 -12.6088 -12.6084 -12.6032 -12.5964 -12.5865 -12.5833 -12.5795
   -12.5782 -12.5737 -12.5702 -12.5678 -12.5665 -12.5648 -12.5420 -12.5383
   -12.5318 -12.5300 -12.5198 -12.5187 -12.5140 -12.5119 -12.5098 -12.4924
    -9.7520  -9.2961  -9.2488  -8.8979  -8.3116  -8.2748  -7.9303  -7.8434
    -7.8352  -7.8049  -7.7724  -7.6182  -7.4986  -7.4832  -7.4319  -7.4309
    -1.3842  -0.7846  -0.7446  -0.5472   0.1106   0.7219   0.8256   0.8594
     3.3633   3.8017   4.1270   4.1879   4.2469   4.5406   4.6301   4.6532
     4.6752   4.7599   4.8095   4.9360   4.9813   5.0799   5.0926   5.1418
     5.4921   5.5601   5.6214   5.8273   5.9667   6.0400   6.1154   6.2044
     6.2328   6.4640   6.5712   6.6304   6.6469   6.8239   6.9021   6.9143
     6.9741   6.9915   7.0104   7.0182   7.0827   7.1611   7.1773   7.2174
     7.2870   7.4805   7.5018   7.5391   7.6893   7.7761   7.8517   7.9359
     8.0593   8.1108   8.1665   8.1750   8.2846   8.3329   8.5644   8.5667
     8.7752   8.7937   8.8510   8.8624   8.9132   9.1030   9.1516   9.1902
    10.0287  10.4497  10.5746  10.6216  11.7396  12.2109  12.6431  12.9455
    13.2630  13.3204  13.3354  13.6944  14.2579  14.3266  14.3882  14.4748
    14.5076  14.5708  14.6531  14.8712  15.1032  15.1107  15.4693  15.5805
    15.7382  15.8045  15.8623  15.9642

          k = 0.0000 0.0177 0.0000 (  9021 PWs)   bands (ev):

   -12.9199 -12.8877 -12.8811 -12.8788 -12.8667 -12.8618 -12.8549 -12.8398
   -12.8366 -12.8082 -12.8026 -12.7694 -12.6443 -12.6389 -12.6363 -12.6321
   -12.6225 -12.6089 -12.6068 -12.6054 -12.5963 -12.5844 -12.5825 -12.5792
   -12.5766 -12.5735 -12.5698 -12.5670 -12.5665 -12.5646 -12.5411 -12.5385
   -12.5319 -12.5293 -12.5222 -12.5208 -12.5200 -12.5141 -12.5104 -12.4942
    -9.7479  -9.3047  -9.2455  -8.9039  -8.3026  -8.2719  -7.9402  -7.8475
    -7.8330  -7.7989  -7.7634  -7.6223  -7.5003  -7.4811  -7.4341  -7.4320
    -1.3781  -0.7939  -0.7433  -0.5502   0.1192   0.7241   0.8158   0.8583
     3.3709   3.8145   4.1130   4.1882   4.2574   4.5263   4.6325   4.6506
     4.6645   4.7588   4.8124   4.9228   5.0063   5.0908   5.0948   5.1368
     5.5009   5.5576   5.6247   5.8021   5.9624   6.0579   6.1070   6.1996
     6.2133   6.4663   6.5566   6.6373   6.6681   6.8301   6.8932   6.9162
     6.9568   7.0010   7.0073   7.0185   7.0911   7.1691   7.2020   7.2126
     7.2941   7.4912   7.5081   7.5307   7.6894   7.7661   7.8610   7.9216
     8.0592   8.1006   8.1670   8.1886   8.2779   8.3382   8.5611   8.5624
     8.7691   8.7919   8.8516   8.8649   8.9108   9.1032   9.1356   9.1833
    10.0393  10.4515  10.5742  10.6183  11.7642  12.2261  12.6339  12.9369
    13.2407  13.3207  13.3377  13.6865  14.2415  14.3133  14.3820  14.4916
    14.5072  14.5715  14.6534  14.8455  15.1251  15.1314  15.4802  15.5857
    15.7304  15.7972  15.8770  15.9727

          k = 0.0000 0.0197 0.0000 (  9029 PWs)   bands (ev):

   -12.9223 -12.8880 -12.8842 -12.8795 -12.8717 -12.8703 -12.8564 -12.8443
   -12.8373 -12.8103 -12.8010 -12.7751 -12.6442 -12.6394 -12.6378 -12.6315
   -12.6227 -12.6096 -12.6082 -12.6027 -12.5969 -12.5879 -12.5831 -12.5827
   -12.5753 -12.5748 -12.5748 -12.5736 -12.5664 -12.5640 -12.5463 -12.5404
   -12.5341 -12.5267 -12.5223 -12.5210 -12.5199 -12.5149 -12.5105 -12.4931
    -9.7434  -9.3142  -9.2417  -8.9104  -8.2932  -8.2686  -7.9504  -7.8519
    -7.8312  -7.7925  -7.7550  -7.6269  -7.5023  -7.4794  -7.4380  -7.4325
    -1.3716  -0.8042  -0.7418  -0.5540   0.1285   0.7265   0.8049   0.8569
     3.3798   3.8284   4.0974   4.1861   4.2685   4.5115   4.6344   4.6490
     4.6532   4.7579   4.8163   4.9088   5.0295   5.0841   5.1079   5.1341
     5.5100   5.5578   5.6270   5.7755   5.9577   6.0771   6.1001   6.1906
     6.1947   6.4687   6.5421   6.6454   6.6875   6.8320   6.8840   6.9222
     6.9372   7.0046   7.0092   7.0189   7.1009   7.1765   7.2074   7.2251
     7.2994   7.5013   7.5149   7.5212   7.6898   7.7539   7.8708   7.9076
     8.0593   8.0911   8.1672   8.2017   8.2677   8.3448   8.5575   8.5585
     8.7613   8.7893   8.8513   8.8676   8.9080   9.1023   9.1179   9.1758
    10.0509  10.4528  10.5723  10.6143  11.7909  12.2421  12.6238  12.9267
    13.2178  13.3213  13.3394  13.6784  14.2216  14.2980  14.3741  14.4746
    14.5437  14.5738  14.6530  14.8215  15.1457  15.1501  15.4902  15.5870
    15.7220  15.7904  15.8936  15.9827

          k = 0.0000 0.0216 0.0000 (  9029 PWs)   bands (ev):

   -12.9251 -12.8877 -12.8830 -12.8790 -12.8736 -12.8728 -12.8603 -12.8437
   -12.8375 -12.8109 -12.8010 -12.7712 -12.6424 -12.6403 -12.6376 -12.6288
   -12.6209 -12.6113 -12.6102 -12.6023 -12.5980 -12.5906 -12.5828 -12.5823
   -12.5771 -12.5746 -12.5740 -12.5736 -12.5669 -12.5617 -12.5465 -12.5403
   -12.5345 -12.5249 -12.5227 -12.5193 -12.5179 -12.5165 -12.5104 -12.4865
    -9.7384  -9.3243  -9.2376  -8.9175  -8.2824  -8.2650  -7.9612  -7.8568
    -7.8291  -7.7855  -7.7464  -7.6317  -7.5041  -7.4773  -7.4419  -7.4328
    -1.3642  -0.8152  -0.7404  -0.5577   0.1388   0.7291   0.7932   0.8557
     3.3889   3.8440   4.0838   4.1841   4.2821   4.4962   4.6345   4.6466
     4.6481   4.7598   4.8200   4.8949   5.0540   5.0712   5.1226   5.1351
     5.5209   5.5587   5.6274   5.7519   5.9528   6.0936   6.0965   6.1797
     6.1801   6.4711   6.5287   6.6553   6.7051   6.8342   6.8740   6.9166
     6.9296   7.0018   7.0158   7.0189   7.1115   7.1861   7.2014   7.2501
     7.3040   7.5105   7.5122   7.5219   7.6903   7.7421   7.8814   7.8939
     8.0601   8.0798   8.1679   8.2144   8.2596   8.3507   8.5505   8.5543
     8.7531   8.7870   8.8507   8.8709   8.9058   9.0993   9.1022   9.1681
    10.0636  10.4550  10.5708  10.6107  11.8200  12.2594  12.6138  12.9163
    13.1956  13.3220  13.3403  13.6706  14.1999  14.2817  14.3659  14.4578
    14.5770  14.5804  14.6515  14.8030  15.1677  15.1696  15.4992  15.5861
    15.7135  15.7826  15.9185  15.9900

          k = 0.0000 0.0236 0.0000 (  9033 PWs)   bands (ev):

   -12.9268 -12.8865 -12.8845 -12.8787 -12.8730 -12.8713 -12.8583 -12.8447
   -12.8412 -12.8136 -12.8021 -12.7733 -12.6422 -12.6385 -12.6301 -12.6270
   -12.6180 -12.6125 -12.6096 -12.6016 -12.5902 -12.5874 -12.5863 -12.5828
   -12.5779 -12.5748 -12.5740 -12.5715 -12.5709 -12.5604 -12.5506 -12.5416
   -12.5375 -12.5250 -12.5247 -12.5204 -12.5190 -12.5174 -12.5159 -12.5044
    -9.7330  -9.3349  -9.2332  -8.9250  -8.2714  -8.2613  -7.9716  -7.8624
    -7.8265  -7.7780  -7.7381  -7.6367  -7.5062  -7.4753  -7.4462  -7.4328
    -1.3561  -0.8270  -0.7385  -0.5620   0.1504   0.7321   0.7803   0.8539
     3.3996   3.8606   4.0663   4.1827   4.2947   4.4792   4.6331   4.6382
     4.6478   4.7598   4.8205   4.8826   5.0563   5.0771   5.1372   5.1378
     5.5314   5.5616   5.6246   5.7295   5.9471   6.0884   6.1160   6.1652
     6.1689   6.4720   6.5136   6.6673   6.7201   6.8361   6.8651   6.8937
     6.9396   7.0000   7.0188   7.0216   7.1238   7.1945   7.1956   7.2746
     7.3088   7.4997   7.5228   7.5380   7.6894   7.7301   7.8812   7.8928
     8.0617   8.0668   8.1694   8.2262   8.2520   8.3574   8.5428   8.5502
     8.7449   8.7850   8.8490   8.8738   8.9042   9.0802   9.1015   9.1612
    10.0764  10.4578  10.5681  10.6025  11.8515  12.2771  12.6039  12.9047
    13.1735  13.3232  13.3395  13.6635  14.1759  14.2660  14.3573  14.4409
    14.5812  14.6197  14.6514  14.7826  15.1870  15.1919  15.5050  15.5818
    15.7049  15.7722  15.9408  15.9978

          k = 0.0000 0.0256 0.0000 (  9023 PWs)   bands (ev):

   -12.9218 -12.8854 -12.8844 -12.8749 -12.8711 -12.8691 -12.8569 -12.8441
   -12.8406 -12.8118 -12.8007 -12.7740 -12.6397 -12.6368 -12.6259 -12.6234
   -12.6137 -12.6115 -12.6071 -12.6003 -12.5860 -12.5829 -12.5818 -12.5817
   -12.5776 -12.5713 -12.5704 -12.5675 -12.5631 -12.5613 -12.5486 -12.5382
   -12.5338 -12.5242 -12.5233 -12.5186 -12.5183 -12.5162 -12.5156 -12.5124
    -9.7270  -9.3460  -9.2282  -8.9328  -8.2597  -8.2571  -7.9813  -7.8682
    -7.8235  -7.7699  -7.7297  -7.6419  -7.5086  -7.4730  -7.4506  -7.4329
    -1.3473  -0.8394  -0.7363  -0.5665   0.1628   0.7356   0.7671   0.8521
     3.4103   3.8790   4.0486   4.1807   4.3089   4.4643   4.6305   4.6320
     4.6484   4.7599   4.8249   4.8685   5.0394   5.1016   5.1449   5.1509
     5.5466   5.5663   5.6229   5.7093   5.9411   6.0790   6.1344   6.1503
     6.1671   6.4751   6.5009   6.6789   6.7342   6.8385   6.8556   6.8731
     6.9506   6.9986   7.0183   7.0269   7.1396   7.1908   7.2044   7.2990
     7.3136   7.4897   7.5347   7.5521   7.6889   7.7207   7.8694   7.9048
     8.0547   8.0640   8.1719   8.2380   8.2428   8.3666   8.5371   8.5472
     8.7382   8.7840   8.8464   8.8771   8.9030   9.0614   9.1018   9.1554
    10.0914  10.4630  10.5650  10.5991  11.8846  12.2956  12.5940  12.8924
    13.1521  13.3244  13.3384  13.6577  14.1490  14.2487  14.3502  14.4256
    14.5892  14.6513  14.6597  14.7642  15.2025  15.2157  15.5123  15.5798
    15.6967  15.7610  15.9658  16.0049

          k = 0.0000 0.0275 0.0000 (  9025 PWs)   bands (ev):

   -12.9210 -12.8865 -12.8831 -12.8734 -12.8721 -12.8719 -12.8579 -12.8436
   -12.8385 -12.8101 -12.7989 -12.7744 -12.6449 -12.6401 -12.6257 -12.6238
   -12.6150 -12.6123 -12.6110 -12.6003 -12.5871 -12.5830 -12.5820 -12.5813
   -12.5780 -12.5714 -12.5685 -12.5668 -12.5615 -12.5583 -12.5484 -12.5381
   -12.5338 -12.5249 -12.5241 -12.5224 -12.5182 -12.5181 -12.5165 -12.5128
    -9.7206  -9.3577  -9.2230  -8.9412  -8.2524  -8.2475  -7.9918  -7.8745
    -7.8204  -7.7617  -7.7216  -7.6473  -7.5111  -7.4708  -7.4554  -7.4332
    -1.3381  -0.8527  -0.7340  -0.5714   0.1756   0.7387   0.7527   0.8506
     3.4214   3.8974   4.0306   4.1786   4.3245   4.4480   4.6252   4.6264
     4.6490   4.7615   4.8294   4.8531   5.0208   5.1257   5.1491   5.1625
     5.5622   5.5712   5.6176   5.6910   5.9342   6.0659   6.1323   6.1515
     6.1717   6.4769   6.4915   6.6910   6.7454   6.8388   6.8454   6.8499
     6.9623   6.9966   7.0178   7.0315   7.1541   7.1853   7.2130   7.3155
     7.3216   7.4785   7.5468   7.5650   7.6878   7.7103   7.8582   7.9166
     8.0427   8.0641   8.1756   8.2328   8.2485   8.3768   8.5309   8.5439
     8.7302   8.7802   8.8411   8.8806   8.9014   9.0409   9.1013   9.1480
    10.1061  10.4660  10.5637  10.5932  11.9191  12.3144  12.5838  12.8782
    13.1308  13.3249  13.3360  13.6521  14.1212  14.2290  14.3420  14.4104
    14.5960  14.6507  14.7007  14.7479  15.2137  15.2410  15.5162  15.5798
    15.6870  15.7501  15.9920  16.0109

          k = 0.0000 0.0295 0.0000 (  9019 PWs)   bands (ev):

   -12.9196 -12.8857 -12.8838 -12.8750 -12.8715 -12.8680 -12.8583 -12.8429
   -12.8384 -12.8105 -12.7986 -12.7707 -12.6423 -12.6371 -12.6260 -12.6227
   -12.6153 -12.6142 -12.6108 -12.5987 -12.5856 -12.5801 -12.5796 -12.5792
   -12.5759 -12.5721 -12.5685 -12.5605 -12.5588 -12.5577 -12.5467 -12.5363
   -12.5329 -12.5238 -12.5222 -12.5190 -12.5177 -12.5167 -12.5148 -12.5122
    -9.7138  -9.3697  -9.2173  -8.9498  -8.2475  -8.2346  -8.0018  -7.8812
    -7.8172  -7.7531  -7.7134  -7.6530  -7.5136  -7.4686  -7.4605  -7.4336
    -1.3280  -0.8668  -0.7315  -0.5765   0.1894   0.7379   0.7421   0.8488
     3.4339   3.9169   4.0118   4.1774   4.3404   4.4317   4.6186   4.6220
     4.6507   4.7664   4.8350   4.8394   5.0006   5.1466   5.1555   5.1730
     5.5781   5.5796   5.6137   5.6736   5.9272   6.0496   6.1139   6.1676
     6.1839   6.4794   6.4827   6.7024   6.7554   6.8282   6.8360   6.8397
     6.9745   6.9947   7.0166   7.0343   7.1706   7.1797   7.2235   7.3162
     7.3436   7.4685   7.5624   7.5788   7.6868   7.6996   7.8474   7.9288
     8.0309   8.0654   8.1807   8.2222   8.2581   8.3867   8.5250   8.5408
     8.7212   8.7778   8.8354   8.8839   8.8998   9.0203   9.1009   9.1401
    10.1234  10.4702  10.5644  10.5890  11.9552  12.3333  12.5742  12.8635
    13.1125  13.3263  13.3323  13.6470  14.0925  14.2094  14.3345  14.3963
    14.6050  14.6510  14.7334  14.7429  15.2206  15.2674  15.5196  15.5831
    15.6779  15.7407  16.0162  16.0183

          k = 0.0000 0.0315 0.0000 (  9015 PWs)   bands (ev):

   -12.9123 -12.8864 -12.8818 -12.8744 -12.8704 -12.8675 -12.8576 -12.8419
   -12.8387 -12.8104 -12.7968 -12.7712 -12.6419 -12.6367 -12.6247 -12.6217
   -12.6148 -12.6105 -12.6101 -12.5965 -12.5844 -12.5801 -12.5792 -12.5778
   -12.5756 -12.5710 -12.5670 -12.5614 -12.5594 -12.5573 -12.5499 -12.5381
   -12.5256 -12.5242 -12.5227 -12.5177 -12.5163 -12.5163 -12.5144 -12.5129
    -9.7066  -9.3822  -9.2114  -8.9589  -8.2425  -8.2216  -8.0117  -7.8883
    -7.8134  -7.7443  -7.7054  -7.6586  -7.5164  -7.4664  -7.4659  -7.4339
    -1.3173  -0.8813  -0.7288  -0.5817   0.2038   0.7223   0.7457   0.8466
     3.4474   3.9376   3.9918   4.1766   4.3571   4.4161   4.6086   4.6196
     4.6530   4.7699   4.8253   4.8414   4.9781   5.1609   5.1650   5.1822
     5.5862   5.5990   5.6075   5.6584   5.9198   6.0316   6.0948   6.1838
     6.2008   6.4748   6.4822   6.7126   6.7637   6.8054   6.8274   6.8427
     6.9869   6.9928   7.0148   7.0370   7.1743   7.1858   7.2367   7.3152
     7.3633   7.4593   7.5737   7.5932   7.6858   7.6902   7.8379   7.9410
     8.0190   8.0656   8.1874   8.2109   8.2663   8.3972   8.5188   8.5383
     8.7122   8.7764   8.8291   8.8873   8.8977   9.0001   9.1003   9.1338
    10.1397  10.4737  10.5631  10.5829  11.9924  12.3521  12.5643  12.8481
    13.0961  13.3265  13.3286  13.6422  14.0627  14.1890  14.3270  14.3838
    14.6139  14.6519  14.7209  14.7855  15.2236  15.2947  15.5205  15.5896
    15.6681  15.7296  16.0203  16.0438

          k = 0.0000 0.0334 0.0000 (  9023 PWs)   bands (ev):

   -12.9146 -12.8892 -12.8855 -12.8749 -12.8739 -12.8699 -12.8600 -12.8439
   -12.8419 -12.8045 -12.7967 -12.7744 -12.6419 -12.6390 -12.6274 -12.6214
   -12.6165 -12.6114 -12.6101 -12.6041 -12.5869 -12.5806 -12.5793 -12.5787
   -12.5743 -12.5713 -12.5670 -12.5623 -12.5582 -12.5577 -12.5537 -12.5397
   -12.5284 -12.5283 -12.5276 -12.5179 -12.5177 -12.5158 -12.5146 -12.5135
    -9.6989  -9.3949  -9.2052  -8.9682  -8.2375  -8.2085  -8.0220  -7.8960
    -7.8096  -7.7347  -7.6979  -7.6647  -7.5195  -7.4717  -7.4648  -7.4344
    -1.3063  -0.8964  -0.7258  -0.5876   0.2187   0.7056   0.7493   0.8439
     3.4610   3.9593   3.9720   4.1761   4.3746   4.4013   4.5971   4.6170
     4.6550   4.7726   4.8110   4.8470   4.9552   5.1663   5.1809   5.1881
     5.5943   5.6013   5.6181   5.6462   5.9115   6.0118   6.0732   6.1952
     6.2240   6.4643   6.4829   6.7209   6.7686   6.7833   6.8177   6.8458
     6.9910   6.9988   7.0119   7.0363   7.1670   7.2017   7.2470   7.3123
     7.3802   7.4481   7.5835   7.6074   7.6826   7.6827   7.8301   7.9512
     8.0085   8.0658   8.1961   8.2001   8.2727   8.4071   8.5128   8.5348
     8.7024   8.7731   8.8208   8.8909   8.8936   8.9809   9.0979   9.1272
    10.1560  10.4777  10.5620  10.5713  12.0303  12.3698  12.5553  12.8302
    13.0820  13.3199  13.3301  13.6368  14.0326  14.1675  14.3195  14.3705
    14.6222  14.6538  14.7095  14.8279  15.2185  15.3224  15.5201  15.5997
    15.6572  15.7191  16.0228  16.0687

          k = 0.0000 0.0354 0.0000 (  9021 PWs)   bands (ev):

   -12.9132 -12.8902 -12.8873 -12.8753 -12.8734 -12.8691 -12.8606 -12.8447
   -12.8409 -12.8014 -12.7985 -12.7753 -12.6420 -12.6362 -12.6245 -12.6241
   -12.6137 -12.6113 -12.6105 -12.6051 -12.5862 -12.5816 -12.5813 -12.5787
   -12.5715 -12.5683 -12.5674 -12.5622 -12.5582 -12.5514 -12.5454 -12.5397
   -12.5294 -12.5284 -12.5268 -12.5194 -12.5167 -12.5159 -12.5156 -12.5127
    -9.6909  -9.4078  -9.1986  -8.9776  -8.2318  -8.1949  -8.0319  -7.9040
    -7.8056  -7.7254  -7.6905  -7.6710  -7.5226  -7.4777  -7.4628  -7.4350
    -1.2943  -0.9119  -0.7225  -0.5934   0.2346   0.6886   0.7532   0.8413
     3.4759   3.9510   3.9828   4.1758   4.3871   4.3905   4.5844   4.6128
     4.6577   4.7745   4.7980   4.8568   4.9330   5.1714   5.1956   5.1964
     5.5966   5.6046   5.6352   5.6397   5.9030   5.9922   6.0525   6.2032
     6.2513   6.4592   6.4844   6.7266   6.7628   6.7738   6.8079   6.8493
     6.9893   7.0070   7.0125   7.0368   7.1587   7.2196   7.2577   7.3091
     7.3946   7.4392   7.5920   7.6218   7.6765   7.6810   7.8241   7.9606
     7.9980   8.0663   8.1892   8.2069   8.2773   8.4187   8.5081   8.5317
     8.6931   8.7706   8.8117   8.8883   8.8936   8.9647   9.0982   9.1223
    10.1740  10.4826  10.5608  10.5615  12.0696  12.3873  12.5467  12.8123
    13.0687  13.3124  13.3328  13.6312  14.0029  14.1466  14.3132  14.3595
    14.6299  14.6595  14.6990  14.8701  15.2043  15.3505  15.5186  15.6147
    15.6461  15.7087  16.0236  16.0934

          k = 0.0000 0.0374 0.0000 (  9023 PWs)   bands (ev):

   -12.9140 -12.8897 -12.8860 -12.8751 -12.8729 -12.8691 -12.8672 -12.8447
   -12.8337 -12.8010 -12.8009 -12.7754 -12.6413 -12.6370 -12.6253 -12.6243
   -12.6134 -12.6131 -12.6096 -12.6037 -12.5872 -12.5806 -12.5805 -12.5772
   -12.5717 -12.5714 -12.5675 -12.5642 -12.5591 -12.5555 -12.5460 -12.5427
   -12.5285 -12.5283 -12.5266 -12.5198 -12.5172 -12.5160 -12.5146 -12.5142
    -9.6824  -9.4210  -9.1917  -8.9874  -8.2257  -8.1811  -8.0422  -7.9127
    -7.8016  -7.7162  -7.6833  -7.6771  -7.5256  -7.4835  -7.4608  -7.4357
    -1.2820  -0.9279  -0.7191  -0.5993   0.2509   0.6706   0.7572   0.8387
     3.4914   3.9306   4.0058   4.1761   4.3737   4.4091   4.5692   4.6118
     4.6613   4.7757   4.7844   4.8649   4.9094   5.1780   5.1966   5.2075
     5.5930   5.6150   5.6269   5.6641   5.8938   5.9725   6.0315   6.2090
     6.2805   6.4555   6.4857   6.7322   6.7425   6.7775   6.7985   6.8531
     6.9877   7.0029   7.0241   7.0370   7.1497   7.2355   7.2690   7.3062
     7.4054   7.4317   7.5953   7.6353   7.6744   7.6781   7.8205   7.9701
     7.9888   8.0664   8.1774   8.2196   8.2795   8.4310   8.5043   8.5281
     8.6839   8.7682   8.8007   8.8792   8.8968   8.9515   9.0958   9.1167
    10.1915  10.4864  10.5478  10.5577  12.1096  12.4033  12.5386  12.7938
    13.0599  13.3032  13.3361  13.6248  13.9756  14.1249  14.3066  14.3489
    14.6341  14.6702  14.6910  14.9125  15.1895  15.3792  15.5163  15.6329
    15.6335  15.6984  16.0227  16.1168

          k = 0.0000 0.0393 0.0000 (  9019 PWs)   bands (ev):

   -12.9103 -12.8891 -12.8881 -12.8755 -12.8678 -12.8666 -12.8619 -12.8482
   -12.8335 -12.8064 -12.8001 -12.7805 -12.6369 -12.6352 -12.6247 -12.6186
   -12.6127 -12.6126 -12.6054 -12.6020 -12.5847 -12.5812 -12.5801 -12.5783
   -12.5730 -12.5689 -12.5684 -12.5640 -12.5638 -12.5539 -12.5451 -12.5423
   -12.5281 -12.5268 -12.5267 -12.5191 -12.5150 -12.5143 -12.5130 -12.5099
    -9.6735  -9.4342  -9.1845  -8.9972  -8.2196  -8.1675  -8.0515  -7.9216
    -7.7968  -7.7070  -7.6833  -7.6766  -7.5287  -7.4899  -7.4585  -7.4361
    -1.2690  -0.9443  -0.7155  -0.6053   0.2677   0.6528   0.7611   0.8363
     3.5069   3.9095   4.0277   4.1769   4.3617   4.4290   4.5538   4.6117
     4.6638   4.7706   4.7772   4.8765   4.8842   5.1837   5.1945   5.2191
     5.5919   5.6208   5.6261   5.6905   5.8846   5.9537   6.0102   6.2113
     6.3113   6.4543   6.4860   6.7256   6.7378   6.7804   6.7890   6.8567
     6.9868   6.9977   7.0359   7.0368   7.1392   7.2493   7.2804   7.3047
     7.4129   7.4237   7.6047   7.6504   7.6753   7.6776   7.8169   7.9806
     7.9813   8.0652   8.1666   8.2350   8.2794   8.4443   8.5027   8.5247
     8.6752   8.7667   8.7889   8.8671   8.9001   8.9419   9.0952   9.1094
    10.2090  10.4906  10.5399  10.5566  12.1484  12.4185  12.5311  12.7749
    13.0544  13.2915  13.3398  13.6181  13.9511  14.1037  14.3014  14.3395
    14.6360  14.6832  14.6840  14.9557  15.1719  15.4083  15.5137  15.6205
    15.6547  15.6890  16.0195  16.1258

          k = 0.0000 0.0413 0.0000 (  9012 PWs)   bands (ev):

   -12.9086 -12.8893 -12.8867 -12.8753 -12.8644 -12.8630 -12.8623 -12.8479
   -12.8231 -12.8069 -12.7996 -12.7833 -12.6350 -12.6349 -12.6201 -12.6176
   -12.6125 -12.6121 -12.6023 -12.6007 -12.5810 -12.5793 -12.5785 -12.5771
   -12.5733 -12.5682 -12.5655 -12.5639 -12.5635 -12.5517 -12.5454 -12.5418
   -12.5279 -12.5248 -12.5237 -12.5168 -12.5149 -12.5132 -12.5120 -12.5081
    -9.6642  -9.4475  -9.1770  -9.0072  -8.2131  -8.1538  -8.0611  -7.9308
    -7.7921  -7.6978  -7.6893  -7.6699  -7.5318  -7.4960  -7.4562  -7.4367
    -1.2555  -0.9610  -0.7115  -0.6112   0.2853   0.6343   0.7651   0.8334
     3.5241   3.8890   4.0523   4.1780   4.3505   4.4489   4.5363   4.6129
     4.6681   4.7582   4.7757   4.8623   4.8887   5.1900   5.1906   5.2283
     5.5925   5.6168   5.6379   5.7182   5.8751   5.9350   5.9877   6.2085
     6.3453   6.4545   6.4881   6.7117   6.7419   6.7813   6.7828   6.8599
     6.9852   6.9913   7.0351   7.0502   7.1294   7.2580   7.2917   7.3062
     7.4174   7.4185   7.6119   7.6612   7.6730   7.6799   7.8187   7.9746
     7.9885   8.0645   8.1558   8.2522   8.2765   8.4575   8.5023   8.5208
     8.6648   8.7664   8.7757   8.8530   8.9032   8.9366   9.0941   9.1049
    10.2274  10.4949  10.5287  10.5549  12.1890  12.4319  12.5243  12.7552
    13.0509  13.2796  13.3445  13.6089  13.9298  14.0824  14.2970  14.3309
    14.6369  14.6789  14.7024  14.9974  15.1505  15.4372  15.5087  15.6078
    15.6787  15.6802  16.0151  16.0944

          k = 0.0000 0.0433 0.0000 (  9024 PWs)   bands (ev):

   -12.9111 -12.8899 -12.8868 -12.8762 -12.8645 -12.8644 -12.8639 -12.8494
   -12.8242 -12.8142 -12.7985 -12.7839 -12.6413 -12.6359 -12.6218 -12.6192
   -12.6176 -12.6161 -12.6082 -12.6040 -12.5833 -12.5785 -12.5782 -12.5775
   -12.5754 -12.5666 -12.5657 -12.5652 -12.5624 -12.5564 -12.5531 -12.5449
   -12.5334 -12.5297 -12.5276 -12.5187 -12.5184 -12.5155 -12.5145 -12.5106
    -9.6545  -9.4608  -9.1692  -9.0173  -8.2065  -8.1398  -8.0714  -7.9407
    -7.7872  -7.6956  -7.6894  -7.6638  -7.5349  -7.5027  -7.4547  -7.4376
    -1.2416  -0.9781  -0.7073  -0.6175   0.3032   0.6152   0.7687   0.8305
     3.5411   3.8678   4.0744   4.1783   4.3371   4.4673   4.5170   4.6136
     4.6707   4.7446   4.7741   4.8368   4.9022   5.1816   5.1949   5.2356
     5.5955   5.6143   5.6492   5.7462   5.8641   5.9144   5.9648   6.2002
     6.3793   6.4543   6.4892   6.7004   6.7445   6.7696   6.7841   6.8573
     6.9830   6.9842   7.0333   7.0627   7.1175   7.2591   7.3021   7.3120
     7.4117   7.4188   7.6214   7.6682   7.6686   7.6805   7.8212   7.9681
     7.9955   8.0630   8.1448   8.2699   8.2701   8.4707   8.5043   8.5160
     8.6527   8.7601   8.7640   8.8390   8.9057   8.9329   9.0925   9.0986
    10.2451  10.4970  10.5179  10.5530  12.2291  12.4437  12.5179  12.7342
    13.0509  13.2644  13.3500  13.5973  13.9123  14.0615  14.2924  14.3227
    14.6379  14.6712  14.7194  15.0380  15.1264  15.4638  15.5005  15.5921
    15.6723  15.7025  16.0090  16.0607

          k = 0.0000 0.0452 0.0000 (  9030 PWs)   bands (ev):

   -12.9076 -12.8911 -12.8863 -12.8675 -12.8647 -12.8644 -12.8644 -12.8516
   -12.8233 -12.8216 -12.7875 -12.7869 -12.6422 -12.6375 -12.6214 -12.6211
   -12.6171 -12.6170 -12.6142 -12.6081 -12.5845 -12.5833 -12.5789 -12.5777
   -12.5747 -12.5660 -12.5659 -12.5658 -12.5605 -12.5589 -12.5522 -12.5441
   -12.5430 -12.5322 -12.5277 -12.5240 -12.5229 -12.5215 -12.5192 -12.5130
    -9.6445  -9.4742  -9.1612  -9.0275  -8.1997  -8.1260  -8.0811  -7.9505
    -7.7823  -7.7019  -7.6810  -7.6578  -7.5381  -7.5093  -7.4531  -7.4378
    -1.2272  -0.9954  -0.7029  -0.6236   0.3211   0.5963   0.7727   0.8274
     3.5580   3.8467   4.0974   4.1804   4.3271   4.4878   4.4975   4.6176
     4.6747   4.7311   4.7733   4.8114   4.9159   5.1693   5.2003   5.2401
     5.5991   5.6129   5.6609   5.7727   5.8544   5.8962   5.9437   6.1852
     6.4152   6.4569   6.4908   6.6908   6.7461   6.7600   6.7836   6.8529
     6.9779   6.9812   7.0326   7.0754   7.1069   7.2542   7.3124   7.3222
     7.4058   7.4188   7.6268   7.6641   7.6760   7.6846   7.8267   7.9634
     8.0031   8.0602   8.1368   8.2609   8.2904   8.4854   8.5067   8.5094
     8.6445   8.7426   8.7639   8.8225   8.9081   8.9295   9.0917   9.0918
    10.2627  10.4976  10.5048  10.5482  12.2698  12.4534  12.5124  12.7124
    13.0535  13.2497  13.3568  13.5826  13.8995  14.0403  14.2888  14.3144
    14.6381  14.6670  14.7382  15.0783  15.1018  15.4906  15.4918  15.5794
    15.6669  15.7284  16.0003  16.0264

          k = 0.0000 0.0472 0.0000 (  9028 PWs)   bands (ev):

   -12.9065 -12.8920 -12.8854 -12.8678 -12.8647 -12.8639 -12.8635 -12.8520
   -12.8227 -12.8226 -12.7874 -12.7872 -12.6423 -12.6372 -12.6213 -12.6173
   -12.6167 -12.6157 -12.6138 -12.6081 -12.5842 -12.5838 -12.5789 -12.5774
   -12.5745 -12.5660 -12.5657 -12.5609 -12.5605 -12.5594 -12.5516 -12.5441
   -12.5430 -12.5322 -12.5278 -12.5241 -12.5215 -12.5204 -12.5192 -12.5126
    -9.6341  -9.4876  -9.1528  -9.0377  -8.1924  -8.1121  -8.0906  -7.9610
    -7.7772  -7.7081  -7.6726  -7.6525  -7.5409  -7.5160  -7.4514  -7.4384
    -1.2123  -1.0126  -0.6983  -0.6298   0.3396   0.5768   0.7767   0.8241
     3.5762   3.8252   4.1200   4.1828   4.3195   4.4772   4.5092   4.6210
     4.6799   4.7189   4.7685   4.7867   4.9320   5.1559   5.2061   5.2437
     5.6053   5.6148   5.6735   5.7969   5.8503   5.8805   5.9240   6.1691
     6.4522   6.4598   6.4915   6.6852   6.7487   6.7506   6.7849   6.8449
     6.9730   6.9799   7.0327   7.0894   7.0963   7.2470   7.3227   7.3349
     7.4009   7.4178   7.6313   7.6605   7.6802   7.6885   7.8364   7.9602
     8.0092   8.0579   8.1301   8.2497   8.3113   8.4997   8.5030   8.5129
     8.6347   8.7233   8.7628   8.8100   8.9108   8.9279   9.0890   9.0907
    10.2812  10.4914  10.5015  10.5458  12.3092  12.4619  12.5074  12.6896
    13.0590  13.2343  13.3649  13.5660  13.8914  14.0201  14.2865  14.3089
    14.6385  14.6626  14.7590  15.0752  15.1181  15.4795  15.5150  15.5689
    15.6658  15.7538  15.9903  15.9925

          k = 0.0000 0.0492 0.0000 (  9030 PWs)   bands (ev):

   -12.9086 -12.8933 -12.8821 -12.8696 -12.8651 -12.8627 -12.8626 -12.8530
   -12.8246 -12.8229 -12.7876 -12.7833 -12.6419 -12.6383 -12.6188 -12.6186
   -12.6154 -12.6148 -12.6128 -12.6088 -12.5858 -12.5840 -12.5821 -12.5782
   -12.5749 -12.5669 -12.5654 -12.5610 -12.5608 -12.5578 -12.5510 -12.5437
   -12.5426 -12.5311 -12.5299 -12.5280 -12.5230 -12.5218 -12.5205 -12.5153
    -9.6234  -9.5008  -9.1442  -9.0479  -8.1851  -8.0998  -8.0982  -7.9718
    -7.7721  -7.7142  -7.6647  -7.6483  -7.5436  -7.5224  -7.4499  -7.4393
    -1.1971  -1.0299  -0.6935  -0.6360   0.3585   0.5572   0.7808   0.8207
     3.5950   3.8034   4.1419   4.1856   4.3151   4.4564   4.5297   4.6244
     4.6852   4.7071   4.7627   4.7627   4.9490   5.1414   5.2106   5.2442
     5.6121   5.6170   5.6859   5.8061   5.8596   5.8663   5.9052   6.1474
     6.4627   6.4895   6.4918   6.6825   6.7410   6.7483   6.7848   6.8318
     6.9694   6.9782   7.0341   7.0865   7.1032   7.2370   7.3312   7.3473
     7.3961   7.4160   7.6348   7.6587   7.6827   7.6905   7.8478   7.9575
     8.0139   8.0554   8.1261   8.2367   8.3326   8.4953   8.5140   8.5195
     8.6238   8.7024   8.7618   8.7980   8.9125   8.9276   9.0869   9.0895
    10.3013  10.4775  10.5046  10.5408  12.3478  12.4687  12.5029  12.6658
    13.0671  13.2178  13.3744  13.5471  13.8876  14.0007  14.2846  14.3034
    14.6389  14.6579  14.7805  15.0470  15.1568  15.4638  15.5347  15.5628
    15.6698  15.7796  15.9583  15.9783

          k = 0.0000 0.0511 0.0000 (  9034 PWs)   bands (ev):

   -12.9080 -12.8967 -12.8833 -12.8704 -12.8667 -12.8624 -12.8612 -12.8542
   -12.8260 -12.8223 -12.7885 -12.7823 -12.6429 -12.6380 -12.6202 -12.6201
   -12.6160 -12.6154 -12.6125 -12.6093 -12.5855 -12.5836 -12.5820 -12.5783
   -12.5752 -12.5676 -12.5636 -12.5634 -12.5587 -12.5563 -12.5548 -12.5506
   -12.5429 -12.5332 -12.5300 -12.5286 -12.5270 -12.5247 -12.5210 -12.5143
    -9.6123  -9.5140  -9.1354  -9.0580  -8.1776  -8.1091  -8.0846  -7.9830
    -7.7667  -7.7206  -7.6574  -7.6444  -7.5458  -7.5286  -7.4483  -7.4402
    -1.1815  -1.0473  -0.6885  -0.6423   0.3778   0.5372   0.7849   0.8171
     3.6145   3.7818   4.1616   4.1881   4.3131   4.4345   4.5517   4.6290
     4.6912   4.6959   4.7380   4.7553   4.9662   5.1241   5.2160   5.2449
     5.6196   5.6204   5.6992   5.8004   5.8540   5.8819   5.8863   6.1246
     6.4666   6.4915   6.5269   6.6820   6.7316   6.7455   6.7844   6.8165
     6.9676   6.9765   7.0348   7.0767   7.1166   7.2261   7.3401   7.3579
     7.3912   7.4126   7.6375   7.6556   7.6843   7.6913   7.8610   7.9530
     8.0190   8.0524   8.1255   8.2218   8.3540   8.4859   8.5268   8.5294
     8.6126   8.6810   8.7612   8.7892   8.9149   8.9264   9.0852   9.0880
    10.3206  10.4612  10.5084  10.5377  12.3856  12.4738  12.4992  12.6401
    13.0772  13.2008  13.3855  13.5270  13.8876  13.9818  14.2836  14.2983
    14.6393  14.6542  14.8036  15.0189  15.1947  15.4438  15.5483  15.5587
    15.6805  15.8042  15.9241  15.9650

          k = 0.0000 0.0531 0.0000 (  9020 PWs)   bands (ev):

   -12.9031 -12.8964 -12.8760 -12.8704 -12.8587 -12.8584 -12.8562 -12.8522
   -12.8239 -12.8218 -12.7847 -12.7810 -12.6414 -12.6320 -12.6172 -12.6169
   -12.6164 -12.6127 -12.6117 -12.6025 -12.5859 -12.5828 -12.5756 -12.5751
   -12.5732 -12.5672 -12.5603 -12.5576 -12.5542 -12.5542 -12.5538 -12.5534
   -12.5340 -12.5310 -12.5287 -12.5258 -12.5247 -12.5241 -12.5207 -12.5117
    -9.6009  -9.5270  -9.1263  -9.0681  -8.1696  -8.1181  -8.0711  -7.9946
    -7.7612  -7.7262  -7.6509  -7.6406  -7.5469  -7.5342  -7.4467  -7.4404
    -1.1654  -1.0646  -0.6831  -0.6484   0.3974   0.5174   0.7891   0.8138
     3.6341   3.7607   4.1769   4.1898   4.3149   4.4137   4.5756   4.6346
     4.6855   4.6984   4.7154   4.7488   4.9854   5.1048   5.2213   5.2449
     5.6250   5.6271   5.7143   5.7917   5.8455   5.8706   5.9133   6.0988
     6.4717   6.4912   6.5647   6.6848   6.7236   6.7401   6.7849   6.8028
     6.9686   6.9763   7.0385   7.0691   7.1326   7.2152   7.3492   7.3702
     7.3864   7.4105   7.6411   7.6537   7.6883   7.6966   7.8761   7.9480
     8.0249   8.0504   8.1291   8.2058   8.3761   8.4757   8.5364   8.5473
     8.6015   8.6624   8.7632   8.7820   8.9178   8.9258   9.0842   9.0875
    10.3393  10.4458  10.5133  10.5343  12.4227  12.4787  12.4967  12.6136
    13.0899  13.1844  13.3992  13.5070  13.8920  13.9649  14.2839  14.2946
    14.6406  14.6521  14.8281  14.9904  15.2323  15.4203  15.5554  15.5563
    15.6989  15.8294  15.8899  15.9501

          k = 0.0000 0.0551 0.0000 (  9020 PWs)   bands (ev):

   -12.9021 -12.8978 -12.8753 -12.8708 -12.8578 -12.8577 -12.8550 -12.8537
   -12.8229 -12.8224 -12.7808 -12.7764 -12.6411 -12.6345 -12.6188 -12.6169
   -12.6166 -12.6139 -12.6118 -12.6052 -12.5856 -12.5831 -12.5758 -12.5753
   -12.5703 -12.5701 -12.5592 -12.5575 -12.5562 -12.5549 -12.5529 -12.5517
   -12.5326 -12.5307 -12.5284 -12.5262 -12.5250 -12.5237 -12.5192 -12.5190
    -9.5892  -9.5399  -9.1170  -9.0781  -8.1616  -8.1272  -8.0573  -8.0066
    -7.7556  -7.7323  -7.6457  -7.6387  -7.5475  -7.5390  -7.4454  -7.4411
    -1.1491  -1.0819  -0.6776  -0.6545   0.4171   0.4973   0.7933   0.8100
     3.6539   3.7383   4.1872   4.1920   4.3236   4.3914   4.5982   4.6414
     4.6744   4.6912   4.7063   4.7412   5.0052   5.0858   5.2261   5.2426
     5.6292   5.6323   5.7274   5.7799   5.8401   5.8573   5.9447   6.0717
     6.4768   6.4895   6.6008   6.6884   6.7151   6.7242   6.7841   6.7928
     6.9693   6.9746   7.0413   7.0610   7.1475   7.2022   7.3573   7.3798
     7.3812   7.4063   7.6435   7.6521   7.6901   7.6964   7.8903   7.9397
     8.0298   8.0471   8.1362   8.1897   8.3965   8.4634   8.5461   8.5641
     8.5904   8.6410   8.7641   8.7758   8.9191   8.9246   9.0839   9.0856
    10.3571  10.4293  10.5183  10.5313  12.4585  12.4823  12.4936  12.5855
    13.1038  13.1669  13.4137  13.4865  13.8991  13.9484  14.2840  14.2911
    14.6416  14.6495  14.8530  14.9629  15.2676  15.3934  15.5557  15.5586
    15.7247  15.8525  15.8554  15.9336

          k = 0.0000 0.0570 0.0000 (  9014 PWs)   bands (ev):

   -12.8996 -12.8985 -12.8752 -12.8742 -12.8564 -12.8556 -12.8549 -12.8542
   -12.8207 -12.8201 -12.7774 -12.7771 -12.6394 -12.6393 -12.6175 -12.6171
   -12.6171 -12.6127 -12.6070 -12.6065 -12.5865 -12.5829 -12.5752 -12.5747
   -12.5703 -12.5670 -12.5550 -12.5550 -12.5537 -12.5528 -12.5511 -12.5511
   -12.5302 -12.5296 -12.5283 -12.5281 -12.5241 -12.5211 -12.5137 -12.5106
    -9.5772  -9.5526  -9.1076  -9.0881  -8.1534  -8.1361  -8.0442  -8.0188
    -7.7502  -7.7384  -7.6413  -7.6378  -7.5471  -7.5431  -7.4441  -7.4419
    -1.1327  -1.0988  -0.6720  -0.6605   0.4371   0.4772   0.7981   0.8062
     3.6750   3.7168   4.1940   4.1954   4.3358   4.3712   4.6202   4.6482
     4.6637   4.6690   4.7178   4.7345   5.0264   5.0670   5.2336   5.2405
     5.6332   5.6345   5.7419   5.7680   5.8398   5.8496   5.9774   6.0408
     6.4807   6.4875   6.6377   6.6936   6.6999   6.7070   6.7840   6.7855
     6.9700   6.9731   7.0446   7.0543   7.1604   7.1888   7.3611   7.3745
     7.3894   7.4024   7.6460   7.6512   7.6920   7.6948   7.9042   7.9288
     8.0349   8.0439   8.1466   8.1746   8.4155   8.4495   8.5561   8.5777
     8.5821   8.6201   8.7651   8.7709   8.9206   8.9241   9.0835   9.0850
    10.3785  10.4129  10.5239  10.5304  12.4857  12.4912  12.4928  12.5558
    13.1197  13.1522  13.4296  13.4660  13.9081  13.9333  14.2852  14.2890
    14.6431  14.6472  14.8800  14.9337  15.3015  15.3677  15.5564  15.5587
    15.7567  15.8217  15.8746  15.9156

          k = 0.0000 0.0590 0.0000 (  9010 PWs)   bands (ev):

   -12.9014 -12.9014 -12.8743 -12.8743 -12.8531 -12.8531 -12.8521 -12.8521
   -12.8219 -12.8219 -12.7758 -12.7758 -12.6390 -12.6390 -12.6169 -12.6169
   -12.6142 -12.6142 -12.6044 -12.6044 -12.5846 -12.5846 -12.5741 -12.5741
   -12.5670 -12.5670 -12.5543 -12.5543 -12.5535 -12.5535 -12.5505 -12.5505
   -12.5281 -12.5281 -12.5272 -12.5272 -12.5248 -12.5248 -12.5080 -12.5080
    -9.5650  -9.5650  -9.0979  -9.0979  -8.1447  -8.1447  -8.0313  -8.0313
    -7.7443  -7.7443  -7.6388  -7.6388  -7.5458  -7.5458  -7.4428  -7.4428
    -1.1157  -1.1157  -0.6664  -0.6664   0.4571   0.4571   0.8023   0.8023
     3.6961   3.6961   4.1963   4.1963   4.3525   4.3525   4.6428   4.6428
     4.6570   4.6570   4.7283   4.7283   5.0477   5.0477   5.2374   5.2374
     5.6352   5.6352   5.7549   5.7549   5.8431   5.8431   6.0094   6.0094
     6.4856   6.4856   6.6708   6.6708   6.6988   6.6988   6.7842   6.7842
     6.9715   6.9715   7.0481   7.0481   7.1751   7.1751   7.3687   7.3687
     7.3965   7.3965   7.6489   7.6489   7.6940   7.6940   7.9178   7.9178
     8.0396   8.0396   8.1598   8.1598   8.4331   8.4331   8.5669   8.5669
     8.6000   8.6000   8.7671   8.7671   8.9223   8.9223   9.0850   9.0850
    10.3960  10.3960  10.5273  10.5273  12.4887  12.4887  12.5258  12.5258
    13.1364  13.1364  13.4472  13.4472  13.9196  13.9196  14.2869  14.2869
    14.6447  14.6447  14.9063  14.9063  15.3368  15.3368  15.5578  15.5578
    15.7892  15.7892  15.8955  15.8955

     Writing output data file cubi2o4.save/
 
     init_run     :      0.44s CPU      0.51s WALL (       1 calls)
     electrons    :    142.61s CPU    147.59s WALL (       1 calls)

     Called by init_run:
     wfcinit      :      0.00s CPU      0.00s WALL (       1 calls)
     wfcinit:atom :      0.02s CPU      0.03s WALL (      31 calls)
     wfcinit:wfcr :      3.19s CPU      3.28s WALL (      31 calls)
     potinit      :      0.30s CPU      0.32s WALL (       1 calls)
     hinit0       :      0.08s CPU      0.08s WALL (       1 calls)

     Called by electrons:
     c_bands      :    142.61s CPU    147.56s WALL (       1 calls)
     v_of_rho     :      0.01s CPU      0.01s WALL (       1 calls)
     v_h          :      0.00s CPU      0.00s WALL (       1 calls)
     v_xc         :      0.01s CPU      0.01s WALL (       1 calls)
     newd         :      0.03s CPU      0.04s WALL (       1 calls)
     PAW_pot      :      0.29s CPU      0.30s WALL (       1 calls)

     Called by c_bands:
     init_us_2    :      0.04s CPU      0.05s WALL (      31 calls)
     cegterg      :    138.91s CPU    143.42s WALL (      62 calls)

     Called by sum_band:

     Called by *egterg:
     h_psi        :     30.10s CPU     31.14s WALL (     858 calls)
     s_psi        :      3.94s CPU      3.97s WALL (     858 calls)
     g_psi        :      0.17s CPU      0.17s WALL (     765 calls)
     cdiaghg      :     85.87s CPU     88.81s WALL (     796 calls)
     cegterg:over :      9.43s CPU      9.92s WALL (     765 calls)
     cegterg:upda :      6.55s CPU      6.64s WALL (     765 calls)
     cegterg:last :      4.65s CPU      4.68s WALL (     155 calls)
     cdiaghg:chol :      3.66s CPU      3.75s WALL (     796 calls)
     cdiaghg:inve :      1.48s CPU      1.49s WALL (     796 calls)
     cdiaghg:para :     14.28s CPU     15.83s WALL (    1592 calls)

     Called by h_psi:
     h_psi:pot    :     29.86s CPU     30.88s WALL (     858 calls)
     h_psi:calbec :      3.98s CPU      4.24s WALL (     858 calls)
     vloc_psi     :     21.89s CPU     22.63s WALL (     858 calls)
     add_vuspsi   :      3.98s CPU      4.01s WALL (     858 calls)

     General routines
     calbec       :      3.97s CPU      4.23s WALL (     858 calls)
     fft          :      0.01s CPU      0.01s WALL (      12 calls)
     fftw         :     20.01s CPU     20.68s WALL (  150004 calls)
     davcio       :      0.02s CPU      0.39s WALL (      62 calls)
 
     Parallel routines
     fft_scatt_xy :      1.64s CPU      1.70s WALL (  150016 calls)
     fft_scatt_yz :      7.62s CPU      7.88s WALL (  150016 calls)

     PAW routines
     PAW_pot      :      0.29s CPU      0.30s WALL (       1 calls)
 
     PWSCF        :   2m26.22s CPU   2m33.46s WALL

 
   This run was terminated on:  12:10: 8  12May2022            

=------------------------------------------------------------------------------=
   JOB DONE.
=------------------------------------------------------------------------------=
