
     Program BANDS v.6.4 starts on 12May2022 at 12:10:11 

     This program is part of the open-source Quantum ESPRESSO suite
     for quantum simulation of materials; please cite
         "P. Giannozzi et al., J. Phys.:Condens. Matter 21 395502 (2009);
         "P. Giannozzi et al., J. Phys.:Condens. Matter 29 465901 (2017);
          URL http://www.quantum-espresso.org", 
     in publications or presentations arising from this work. More details at
     http://www.quantum-espresso.org/quote

     Parallel version (MPI), running on    16 processors

     MPI processes distributed on     1 nodes
     R & G space division:  proc/nbgrp/npool/nimage =      16

     Reading data from directory:
     /scratch/irmik/jobs/614041/out/cubi2o4.save/

     IMPORTANT: XC functional enforced from input :
     Exchange-correlation      = PBE ( 1  4  3  4 0 0)
     Any further DFT definition will be discarded
     Please, verify this is what you really want

               file O.UPF: wavefunction(s)  2S 2P renormalized
               file Bi.UPF: wavefunction(s)  6P 5D renormalized
               file Cu.UPF: wavefunction(s)  4S 3D renormalized
 
     Parallelization info
     --------------------
     sticks:   dense  smooth     PW     G-vecs:    dense   smooth      PW
     Min         169     169     45                 4519     4519     625
     Max         170     170     46                 4522     4522     627
     Sum        2709    2709    725                72317    72317   10025
 

     Check: negative core charge=   -0.000070
     high-symmetry point:  0.0000 0.0000 0.0000   x coordinate   0.0000
     high-symmetry point:  0.0000 0.0590 0.0000   x coordinate   0.0590

     Plottable bands (eV) written to file cubi2o4.bands.dat.gnu
     Bands written to file cubi2o4.bands.dat

 **************************************************************************

                    xk=(   0.00000,   0.00000,   0.00000  )

     point group D_4h(4/mmm)
     there are 10 classes
     the character table:

       E     2C4   C2    2C2'  2C2'' i     2S4   s_h   2s_v  2s_d 
A_1g   1.00  1.00  1.00  1.00  1.00  1.00  1.00  1.00  1.00  1.00
A_2g   1.00  1.00  1.00 -1.00 -1.00  1.00  1.00  1.00 -1.00 -1.00
B_1g   1.00 -1.00  1.00  1.00 -1.00  1.00 -1.00  1.00  1.00 -1.00
B_2g   1.00 -1.00  1.00 -1.00  1.00  1.00 -1.00  1.00 -1.00  1.00
E_g    2.00  0.00 -2.00  0.00  0.00  2.00  0.00 -2.00  0.00  0.00
A_1u   1.00  1.00  1.00  1.00  1.00 -1.00 -1.00 -1.00 -1.00 -1.00
A_2u   1.00  1.00  1.00 -1.00 -1.00 -1.00 -1.00 -1.00  1.00  1.00
B_1u   1.00 -1.00  1.00  1.00 -1.00 -1.00  1.00 -1.00 -1.00  1.00
B_2u   1.00 -1.00  1.00 -1.00  1.00 -1.00  1.00 -1.00  1.00 -1.00
E_u    2.00  0.00 -2.00  0.00  0.00 -2.00  0.00  2.00  0.00  0.00

     the symmetry operations in each class and the name of the first element:

     E        1
                                                                 
     2C4      7    8
                                                                 
     C2       2
                                                                 
     2C2'     3    4
                                                                 
     2C2''    5    6
                                                                 
     i        9
                                                                 
     2S4     15   16
                                                                 
     s_h     10
                                                                 
     2s_v    11   12
                                                                 
     2s_d    13   14
                                                                 

     Band symmetry, D_4h(4/mmm) point group:

     e(  1 -  1) =    -12.92761  eV     1   --> A_1u X_1' M_1' 
     e(  2 -  2) =    -12.88997  eV     1   --> B_1g X_2  M_2  
     e(  3 -  4) =    -12.87787  eV     2   --> E_u  X_5' M_5' 
     e(  5 -  6) =    -12.87474  eV     2   --> E_g  X_5  M_5  
     e(  7 -  7) =    -12.86090  eV     1   --> B_2u X_3' M_3' 
     e(  8 -  8) =    -12.84651  eV     1   --> B_1u X_2' M_2' 
     e(  9 -  9) =    -12.83358  eV     1   --> A_2g X_4  M_4  
     e( 10 - 11) =    -12.80570  eV     2   --> E_u  X_5' M_5' 
     e( 12 - 12) =    -12.79054  eV     1   --> A_2u X_4' M_4' 
     e( 13 - 14) =    -12.65294  eV     2   --> E_g  X_5  M_5  
     e( 15 - 15) =    -12.63559  eV     1   --> A_1g X_1  M_1  
     e( 16 - 16) =    -12.63458  eV     1   --> B_2g X_3  M_3  
     e( 17 - 17) =    -12.62504  eV     1   --> A_1g X_1  M_1  
     e( 18 - 19) =    -12.61558  eV     2   --> E_g  X_5  M_5  
     e( 20 - 20) =    -12.60218  eV     1   --> B_2g X_3  M_3  
     e( 21 - 22) =    -12.58887  eV     2   --> E_g  X_5  M_5  
     e( 23 - 23) =    -12.58574  eV     1   --> A_1u X_1' M_1' 
     e( 24 - 25) =    -12.58442  eV     2   --> E_u  X_5' M_5' 
     e( 26 - 26) =    -12.58086  eV     1   --> B_1g X_2  M_2  
     e( 27 - 27) =    -12.56940  eV     1   --> B_2u X_3' M_3' 
     e( 28 - 29) =    -12.56850  eV     2   --> E_u  X_5' M_5' 
     e( 30 - 30) =    -12.56709  eV     1   --> A_2g X_4  M_4  
     e( 31 - 31) =    -12.56581  eV     1   --> A_2u X_4' M_4' 
     e( 32 - 32) =    -12.54082  eV     1   --> B_1u X_2' M_2' 
     e( 33 - 33) =    -12.53089  eV     1   --> B_2u X_3' M_3' 
     e( 34 - 34) =    -12.52767  eV     1   --> A_1g X_1  M_1  
     e( 35 - 36) =    -12.51775  eV     2   --> E_u  X_5' M_5' 
     e( 37 - 38) =    -12.51080  eV     2   --> E_g  X_5  M_5  
     e( 39 - 39) =    -12.50863  eV     1   --> B_2g X_3  M_3  
     e( 40 - 40) =    -12.50291  eV     1   --> A_1u X_1' M_1' 
     e( 41 - 41) =     -9.76746  eV     1   --> A_1g X_1  M_1  
     e( 42 - 43) =     -9.26165  eV     2   --> E_g  X_5  M_5  
     e( 44 - 44) =     -8.87452  eV     1   --> B_2g X_3  M_3  
     e( 45 - 45) =     -8.34941  eV     1   --> A_2u X_4' M_4' 
     e( 46 - 46) =     -8.28564  eV     1   --> A_2g X_4  M_4  
     e( 47 - 47) =     -7.85441  eV     1   --> A_1u X_1' M_1' 
     e( 48 - 49) =     -7.84391  eV     2   --> E_g  X_5  M_5  
     e( 50 - 51) =     -7.82850  eV     2   --> E_u  X_5' M_5' 
     e( 52 - 52) =     -7.60094  eV     1   --> B_1g X_2  M_2  
     e( 53 - 54) =     -7.49209  eV     2   --> E_u  X_5' M_5' 
     e( 55 - 55) =     -7.43172  eV     1   --> B_2u X_3' M_3' 
     e( 56 - 56) =     -7.41922  eV     1   --> B_1u X_2' M_2' 
     e( 57 - 57) =     -1.40699  eV     1   --> B_2u X_3' M_3' 
     e( 58 - 59) =     -0.74929  eV     2   --> E_u  X_5' M_5' 
     e( 60 - 60) =     -0.53434  eV     1   --> A_1u X_1' M_1' 
     e( 61 - 61) =      0.07607  eV     1   --> B_2g X_3  M_3  
     e( 62 - 62) =      0.71249  eV     1   --> A_1g X_1  M_1  
     e( 63 - 64) =      0.86370  eV     2   --> E_g  X_5  M_5  
     e( 65 - 65) =      3.33148  eV     1   --> A_2g X_4  M_4  
     e( 66 - 66) =      3.75348  eV     1   --> B_1g X_2  M_2  
     e( 67 - 67) =      4.18654  eV     1   --> B_1u X_2' M_2' 
     e( 68 - 69) =      4.19786  eV     2   --> E_g  X_5  M_5  
     e( 70 - 70) =      4.59031  eV     1   --> A_1g X_1  M_1  
     e( 71 - 71) =      4.61483  eV     1   --> B_2u X_3' M_3' 
     e( 72 - 72) =      4.68043  eV     1   --> B_1g X_2  M_2  
     e( 73 - 73) =      4.75897  eV     1   --> A_2u X_4' M_4' 
     e( 74 - 74) =      4.78786  eV     1   --> A_1u X_1' M_1' 
     e( 75 - 76) =      4.80508  eV     2   --> E_g  X_5  M_5  
     e( 77 - 78) =      5.00454  eV     2   --> E_u  X_5' M_5' 
     e( 79 - 79) =      5.06358  eV     1   --> B_2g X_3  M_3  
     e( 80 - 80) =      5.17231  eV     1   --> A_2g X_4  M_4  
     e( 81 - 81) =      5.45987  eV     1   --> B_1u X_2' M_2' 
     e( 82 - 83) =      5.59057  eV     2   --> E_u  X_5' M_5' 
     e( 84 - 84) =      5.93779  eV     1   --> B_2g X_3  M_3  
     e( 85 - 86) =      5.98233  eV     2   --> E_g  X_5  M_5  
     e( 87 - 87) =      6.15912  eV     1   --> B_2u X_3' M_3' 
     e( 88 - 88) =      6.16644  eV     1   --> A_1g X_1  M_1  
     e( 89 - 89) =      6.40882  eV     1   --> B_1g X_2  M_2  
     e( 90 - 91) =      6.45312  eV     2   --> E_u  X_5' M_5' 
     e( 92 - 93) =      6.64580  eV     2   --> E_g  X_5  M_5  
     e( 94 - 94) =      6.74925  eV     1   --> A_2u X_4' M_4' 
     e( 95 - 95) =      6.92000  eV     1   --> B_1u X_2' M_2' 
     e( 96 - 97) =      6.96310  eV     2   --> E_g  X_5  M_5  
     e( 98 - 98) =      7.01577  eV     1   --> A_2u X_4' M_4' 
     e( 99 - 99) =      7.03510  eV     1   --> A_1g X_1  M_1  
     e(100 -101) =      7.04002  eV     2   --> E_u  X_5' M_5' 
     e(102 -102) =      7.04033  eV     1   --> B_2u X_3' M_3' 
     e(103 -103) =      7.12462  eV     1   --> A_1u X_1' M_1' 
     e(104 -105) =      7.24455  eV     2   --> E_u  X_5' M_5' 
     e(106 -106) =      7.43784  eV     1   --> A_1u X_1' M_1' 
     e(107 -107) =      7.48696  eV     1   --> A_1g X_1  M_1  
     e(108 -108) =      7.56532  eV     1   --> A_2g X_4  M_4  
     e(109 -109) =      7.68676  eV     1   --> B_2g X_3  M_3  
     e(110 -111) =      7.81583  eV     2   --> E_g  X_5  M_5  
     e(112 -112) =      8.05535  eV     1   --> B_1g X_2  M_2  
     e(113 -114) =      8.05794  eV     2   --> E_u  X_5' M_5' 
     e(115 -115) =      8.15094  eV     1   --> A_2u X_4' M_4' 
     e(116 -116) =      8.16739  eV     1   --> B_1u X_2' M_2' 
     e(117 -118) =      8.31195  eV     2   --> E_g  X_5  M_5  
     e(119 -120) =      8.58005  eV     2   --> E_u  X_5' M_5' 
     e(121 -122) =      8.80392  eV     2   --> E_g  X_5  M_5  
     e(123 -123) =      8.84205  eV     1   --> A_2g X_4  M_4  
     e(124 -124) =      8.85064  eV     1   --> A_1u X_1' M_1' 
     e(125 -125) =      8.92059  eV     1   --> B_2g X_3  M_3  
     e(126 -126) =      9.10227  eV     1   --> B_2u X_3' M_3' 
     e(127 -128) =      9.21305  eV     2   --> E_u  X_5' M_5' 
     e(129 -129) =      9.98255  eV     1   --> B_2g X_3  M_3  
     e(130 -130) =     10.43368  eV     1   --> B_1g X_2  M_2  
     e(131 -131) =     10.57343  eV     1   --> B_2u X_3' M_3' 
     e(132 -132) =     10.63146  eV     1   --> B_1u X_2' M_2' 
     e(133 -133) =     11.64175  eV     1   --> A_2g X_4  M_4  
     e(134 -134) =     12.14929  eV     1   --> A_2u X_4' M_4' 
     e(135 -135) =     12.68272  eV     1   --> A_1g X_1  M_1  
     e(136 -136) =     12.97652  eV     1   --> B_1u X_2' M_2' 
     e(137 -138) =     13.31786  eV     2   --> E_u  X_5' M_5' 
     e(139 -139) =     13.37166  eV     1   --> B_2u X_3' M_3' 
     e(140 -140) =     13.73554  eV     1   --> A_1u X_1' M_1' 
     e(141 -142) =     14.31014  eV     2   --> E_g  X_5  M_5  
     e(143 -143) =     14.36703  eV     1   --> B_2g X_3  M_3  
     e(144 -144) =     14.43800  eV     1   --> A_2u X_4' M_4' 
     e(145 -146) =     14.58261  eV     2   --> E_u  X_5' M_5' 
     e(147 -147) =     14.64799  eV     1   --> A_2g X_4  M_4  
     e(148 -148) =     15.02067  eV     1   --> A_1u X_1' M_1' 
     e(149 -150) =     15.02410  eV     2   --> E_g  X_5  M_5  
     e(151 -151) =     15.40485  eV     1   --> A_1g X_1  M_1  
     e(152 -152) =     15.48507  eV     1   --> B_1u X_2' M_2' 
     e(153 -153) =     15.77303  eV     1   --> B_1g X_2  M_2  
     e(154 -155) =     15.83541  eV     2   --> E_g  X_5  M_5  
     e(156 -156) =     15.92346  eV     1   --> A_2g X_4  M_4  

 **************************************************************************

 **************************************************************************

                    xk=(   0.00000,   0.00197,   0.00000  )

     point group C_2v (mm2) 
     there are  4 classes
     the character table:

       E     C2    s_v   s_v' 
A_1    1.00  1.00  1.00  1.00
A_2    1.00  1.00 -1.00 -1.00
B_1    1.00 -1.00  1.00 -1.00
B_2    1.00 -1.00 -1.00  1.00

     the symmetry operations in each class and the name of the first element:

     E        1
                                                                 
     C2       2
                                                                 
     s_v      3
                                                                 
     s_v'     4
                                                                 

     Band symmetry, C_2v (mm2)  point group:

     e(  1 -  1) =    -12.92792  eV     1   --> A_2  D_2  S_2  
     e(  2 -  2) =    -12.89363  eV     1   --> A_1  D_1  S_1  
     e(  3 -  3) =    -12.88106  eV     1   --> B_1  D_3  S_3  
     e(  4 -  4) =    -12.88056  eV     1   --> A_1  D_1  S_1  
     e(  5 -  5) =    -12.87788  eV     1   --> A_2  D_2  S_2  
     e(  6 -  6) =    -12.87483  eV     1   --> B_2  D_4  S_4  
     e(  7 -  7) =    -12.86197  eV     1   --> B_2  D_4  S_4  
     e(  8 -  8) =    -12.84921  eV     1   --> A_2  D_2  S_2  
     e(  9 -  9) =    -12.83679  eV     1   --> B_1  D_3  S_3  
     e( 10 - 10) =    -12.80776  eV     1   --> B_1  D_3  S_3  
     e( 11 - 11) =    -12.80741  eV     1   --> A_1  D_1  S_1  
     e( 12 - 12) =    -12.79059  eV     1   --> B_2  D_4  S_4  
     e( 13 - 13) =    -12.65716  eV     1   --> A_2  D_2  S_2  
     e( 14 - 14) =    -12.65663  eV     1   --> B_2  D_4  S_4  
     e( 15 - 15) =    -12.63819  eV     1   --> A_1  D_1  S_1  
     e( 16 - 16) =    -12.63465  eV     1   --> B_1  D_3  S_3  
     e( 17 - 17) =    -12.62712  eV     1   --> A_1  D_1  S_1  
     e( 18 - 19) =    -12.61715  eV     2   --> A_2  D_2  S_2  
     e( 18 - 19) =    -12.61715  eV     2   --> B_2  D_4  S_4  
     e( 20 - 20) =    -12.60714  eV     1   --> B_1  D_3  S_3  
     e( 21 - 21) =    -12.59339  eV     1   --> A_2  D_2  S_2  
     e( 22 - 22) =    -12.58911  eV     1   --> B_2  D_4  S_4  
     e( 23 - 23) =    -12.58651  eV     1   --> A_2  D_2  S_2  
     e( 24 - 25) =    -12.58455  eV     2   --> A_1  D_1  S_1  
     e( 24 - 25) =    -12.58455  eV     2   --> B_1  D_3  S_3  
     e( 26 - 26) =    -12.58303  eV     1   --> A_1  D_1  S_1  
     e( 27 - 27) =    -12.57177  eV     1   --> B_1  D_3  S_3  
     e( 28 - 28) =    -12.57138  eV     1   --> B_2  D_4  S_4  
     e( 29 - 29) =    -12.57089  eV     1   --> A_1  D_1  S_1  
     e( 30 - 30) =    -12.56904  eV     1   --> B_1  D_3  S_3  
     e( 31 - 31) =    -12.56581  eV     1   --> B_2  D_4  S_4  
     e( 32 - 32) =    -12.54184  eV     1   --> B_2  D_4  S_4  
     e( 33 - 33) =    -12.54142  eV     1   --> A_2  D_2  S_2  
     e( 34 - 34) =    -12.52800  eV     1   --> A_1  D_1  S_1  
     e( 35 - 35) =    -12.52387  eV     1   --> A_2  D_2  S_2  
     e( 36 - 36) =    -12.52093  eV     1   --> B_1  D_3  S_3  
     e( 37 - 37) =    -12.52055  eV     1   --> A_1  D_1  S_1  
     e( 38 - 38) =    -12.52039  eV     1   --> B_2  D_4  S_4  
     e( 39 - 39) =    -12.50921  eV     1   --> B_1  D_3  S_3  
     e( 40 - 40) =    -12.50570  eV     1   --> A_2  D_2  S_2  
     e( 41 - 41) =     -9.76722  eV     1   --> A_1  D_1  S_1  
     e( 42 - 42) =     -9.26225  eV     1   --> B_2  D_4  S_4  
     e( 43 - 43) =     -9.26147  eV     1   --> A_2  D_2  S_2  
     e( 44 - 44) =     -8.87497  eV     1   --> B_1  D_3  S_3  
     e( 45 - 45) =     -8.34881  eV     1   --> B_2  D_4  S_4  
     e( 46 - 46) =     -8.28584  eV     1   --> B_1  D_3  S_3  
     e( 47 - 47) =     -7.86043  eV     1   --> A_2  D_2  S_2  
     e( 48 - 48) =     -7.84380  eV     1   --> B_2  D_4  S_4  
     e( 49 - 49) =     -7.83810  eV     1   --> A_2  D_2  S_2  
     e( 50 - 50) =     -7.82889  eV     1   --> A_1  D_1  S_1  
     e( 51 - 51) =     -7.82828  eV     1   --> B_1  D_3  S_3  
     e( 52 - 52) =     -7.60166  eV     1   --> A_1  D_1  S_1  
     e( 53 - 53) =     -7.49238  eV     1   --> B_1  D_3  S_3  
     e( 54 - 54) =     -7.49209  eV     1   --> A_1  D_1  S_1  
     e( 55 - 55) =     -7.43195  eV     1   --> B_2  D_4  S_4  
     e( 56 - 56) =     -7.41953  eV     1   --> A_2  D_2  S_2  
     e( 57 - 57) =     -1.40674  eV     1   --> B_2  D_4  S_4  
     e( 58 - 58) =     -0.74989  eV     1   --> A_1  D_1  S_1  
     e( 59 - 59) =     -0.74929  eV     1   --> B_1  D_3  S_3  
     e( 60 - 60) =     -0.53466  eV     1   --> A_2  D_2  S_2  
     e( 61 - 61) =      0.07652  eV     1   --> B_1  D_3  S_3  
     e( 62 - 62) =      0.71260  eV     1   --> A_1  D_1  S_1  
     e( 63 - 63) =      0.86264  eV     1   --> A_2  D_2  S_2  
     e( 64 - 64) =      0.86342  eV     1   --> B_2  D_4  S_4  
     e( 65 - 65) =      3.33101  eV     1   --> B_1  D_3  S_3  
     e( 66 - 66) =      3.75139  eV     1   --> A_1  D_1  S_1  
     e( 67 - 67) =      4.18380  eV     1   --> A_2  D_2  S_2  
     e( 68 - 68) =      4.19719  eV     1   --> B_2  D_4  S_4  
     e( 69 - 69) =      4.19855  eV     1   --> A_2  D_2  S_2  
     e( 70 - 70) =      4.58956  eV     1   --> A_1  D_1  S_1  
     e( 71 - 71) =      4.61494  eV     1   --> B_2  D_4  S_4  
     e( 72 - 72) =      4.67928  eV     1   --> A_1  D_1  S_1  
     e( 73 - 73) =      4.75887  eV     1   --> B_2  D_4  S_4  
     e( 74 - 74) =      4.77515  eV     1   --> A_2  D_2  S_2  
     e( 75 - 75) =      4.80499  eV     1   --> B_2  D_4  S_4  
     e( 76 - 76) =      4.81503  eV     1   --> A_2  D_2  S_2  
     e( 77 - 77) =      5.00173  eV     1   --> B_1  D_3  S_3  
     e( 78 - 78) =      5.00503  eV     1   --> A_1  D_1  S_1  
     e( 79 - 79) =      5.06459  eV     1   --> B_1  D_3  S_3  
     e( 80 - 80) =      5.17026  eV     1   --> B_1  D_3  S_3  
     e( 81 - 81) =      5.45983  eV     1   --> A_2  D_2  S_2  
     e( 82 - 82) =      5.58929  eV     1   --> B_1  D_3  S_3  
     e( 83 - 83) =      5.59103  eV     1   --> A_1  D_1  S_1  
     e( 84 - 84) =      5.93979  eV     1   --> B_1  D_3  S_3  
     e( 85 - 85) =      5.97772  eV     1   --> B_2  D_4  S_4  
     e( 86 - 86) =      5.98170  eV     1   --> A_2  D_2  S_2  
     e( 87 - 87) =      6.16171  eV     1   --> B_2  D_4  S_4  
     e( 88 - 88) =      6.16385  eV     1   --> A_1  D_1  S_1  
     e( 89 - 89) =      6.39484  eV     1   --> A_1  D_1  S_1  
     e( 90 - 90) =      6.45298  eV     1   --> B_1  D_3  S_3  
     e( 91 - 91) =      6.46651  eV     1   --> A_1  D_1  S_1  
     e( 92 - 93) =      6.64287  eV     2   --> A_2  D_2  S_2  
     e( 92 - 93) =      6.64287  eV     2   --> B_2  D_4  S_4  
     e( 94 - 94) =      6.75122  eV     1   --> B_2  D_4  S_4  
     e( 95 - 95) =      6.92075  eV     1   --> A_2  D_2  S_2  
     e( 96 - 96) =      6.95986  eV     1   --> B_2  D_4  S_4  
     e( 97 - 97) =      6.96205  eV     1   --> A_2  D_2  S_2  
     e( 98 - 98) =      7.01594  eV     1   --> B_2  D_4  S_4  
     e( 99 - 99) =      7.03224  eV     1   --> A_1  D_1  S_1  
     e(100 -100) =      7.03622  eV     1   --> B_1  D_3  S_3  
     e(101 -101) =      7.04032  eV     1   --> A_1  D_1  S_1  
     e(102 -102) =      7.04372  eV     1   --> B_2  D_4  S_4  
     e(103 -103) =      7.12485  eV     1   --> A_2  D_2  S_2  
     e(104 -104) =      7.24219  eV     1   --> B_1  D_3  S_3  
     e(105 -105) =      7.24389  eV     1   --> A_1  D_1  S_1  
     e(106 -106) =      7.43712  eV     1   --> A_2  D_2  S_2  
     e(107 -107) =      7.48595  eV     1   --> A_1  D_1  S_1  
     e(108 -108) =      7.56078  eV     1   --> B_1  D_3  S_3  
     e(109 -109) =      7.68657  eV     1   --> B_1  D_3  S_3  
     e(110 -110) =      7.81469  eV     1   --> B_2  D_4  S_4  
     e(111 -111) =      7.81587  eV     1   --> A_2  D_2  S_2  
     e(112 -112) =      8.04069  eV     1   --> A_1  D_1  S_1  
     e(113 -113) =      8.05682  eV     1   --> B_1  D_3  S_3  
     e(114 -114) =      8.07085  eV     1   --> A_1  D_1  S_1  
     e(115 -115) =      8.14879  eV     1   --> B_2  D_4  S_4  
     e(116 -116) =      8.16692  eV     1   --> A_2  D_2  S_2  
     e(117 -117) =      8.31116  eV     1   --> B_2  D_4  S_4  
     e(118 -118) =      8.31188  eV     1   --> A_2  D_2  S_2  
     e(119 -120) =      8.57950  eV     2   --> A_1  D_1  S_1  
     e(119 -120) =      8.57950  eV     2   --> B_1  D_3  S_3  
     e(121 -121) =      8.80130  eV     1   --> B_2  D_4  S_4  
     e(122 -122) =      8.80164  eV     1   --> A_2  D_2  S_2  
     e(123 -123) =      8.84168  eV     1   --> B_1  D_3  S_3  
     e(124 -124) =      8.85067  eV     1   --> A_2  D_2  S_2  
     e(125 -125) =      8.91924  eV     1   --> B_1  D_3  S_3  
     e(126 -126) =      9.10193  eV     1   --> B_2  D_4  S_4  
     e(127 -127) =      9.21101  eV     1   --> B_1  D_3  S_3  
     e(128 -128) =      9.21192  eV     1   --> A_1  D_1  S_1  
     e(129 -129) =      9.98291  eV     1   --> B_1  D_3  S_3  
     e(130 -130) =     10.43287  eV     1   --> A_1  D_1  S_1  
     e(131 -131) =     10.57254  eV     1   --> B_2  D_4  S_4  
     e(132 -132) =     10.63109  eV     1   --> A_2  D_2  S_2  
     e(133 -133) =     11.64273  eV     1   --> B_1  D_3  S_3  
     e(134 -134) =     12.15031  eV     1   --> B_2  D_4  S_4  
     e(135 -135) =     12.68173  eV     1   --> A_1  D_1  S_1  
     e(136 -136) =     12.97547  eV     1   --> A_2  D_2  S_2  
     e(137 -137) =     13.31768  eV     1   --> B_1  D_3  S_3  
     e(138 -138) =     13.31805  eV     1   --> A_1  D_1  S_1  
     e(139 -139) =     13.36884  eV     1   --> B_2  D_4  S_4  
     e(140 -140) =     13.73449  eV     1   --> A_2  D_2  S_2  
     e(141 -141) =     14.30891  eV     1   --> A_2  D_2  S_2  
     e(142 -142) =     14.31256  eV     1   --> B_2  D_4  S_4  
     e(143 -143) =     14.36619  eV     1   --> B_1  D_3  S_3  
     e(144 -144) =     14.43728  eV     1   --> B_2  D_4  S_4  
     e(145 -145) =     14.58040  eV     1   --> A_1  D_1  S_1  
     e(146 -146) =     14.58127  eV     1   --> B_1  D_3  S_3  
     e(147 -147) =     14.64811  eV     1   --> B_1  D_3  S_3  
     e(148 -148) =     15.01703  eV     1   --> A_2  D_2  S_2  
     e(149 -149) =     15.02372  eV     1   --> A_2  D_2  S_2  
     e(150 -150) =     15.02470  eV     1   --> B_2  D_4  S_4  
     e(151 -151) =     15.40609  eV     1   --> A_1  D_1  S_1  
     e(152 -152) =     15.48710  eV     1   --> A_2  D_2  S_2  
     e(153 -153) =     15.77077  eV     1   --> A_1  D_1  S_1  
     e(154 -154) =     15.83365  eV     1   --> A_2  D_2  S_2  
     e(155 -155) =     15.83442  eV     1   --> B_2  D_4  S_4  
     e(156 -156) =     15.92392  eV     1   --> B_1  D_3  S_3  

 **************************************************************************

 **************************************************************************

                    xk=(   0.00000,   0.00393,   0.00000  )

     Band symmetry, C_2v (mm2)  point group:

     e(  1 -  1) =    -12.92733  eV     1   --> A_2  D_2  S_2  
     e(  2 -  2) =    -12.89364  eV     1   --> A_1  D_1  S_1  
     e(  3 -  3) =    -12.88113  eV     1   --> B_1  D_3  S_3  
     e(  4 -  4) =    -12.88031  eV     1   --> A_1  D_1  S_1  
     e(  5 -  5) =    -12.87696  eV     1   --> A_2  D_2  S_2  
     e(  6 -  6) =    -12.87351  eV     1   --> B_2  D_4  S_4  
     e(  7 -  7) =    -12.86128  eV     1   --> B_2  D_4  S_4  
     e(  8 -  8) =    -12.84813  eV     1   --> A_2  D_2  S_2  
     e(  9 -  9) =    -12.83681  eV     1   --> B_1  D_3  S_3  
     e( 10 - 10) =    -12.80778  eV     1   --> B_1  D_3  S_3  
     e( 11 - 11) =    -12.80735  eV     1   --> A_1  D_1  S_1  
     e( 12 - 12) =    -12.78520  eV     1   --> B_2  D_4  S_4  
     e( 13 - 13) =    -12.65552  eV     1   --> A_2  D_2  S_2  
     e( 14 - 14) =    -12.65315  eV     1   --> B_2  D_4  S_4  
     e( 15 - 15) =    -12.63811  eV     1   --> A_1  D_1  S_1  
     e( 16 - 16) =    -12.63455  eV     1   --> B_1  D_3  S_3  
     e( 17 - 17) =    -12.62707  eV     1   --> A_1  D_1  S_1  
     e( 18 - 18) =    -12.61703  eV     1   --> A_2  D_2  S_2  
     e( 19 - 19) =    -12.61678  eV     1   --> B_2  D_4  S_4  
     e( 20 - 20) =    -12.60701  eV     1   --> B_1  D_3  S_3  
     e( 21 - 21) =    -12.59187  eV     1   --> A_2  D_2  S_2  
     e( 22 - 22) =    -12.58751  eV     1   --> B_2  D_4  S_4  
     e( 23 - 23) =    -12.58587  eV     1   --> A_2  D_2  S_2  
     e( 24 - 25) =    -12.58456  eV     2   --> A_1  D_1  S_1  
     e( 24 - 25) =    -12.58456  eV     2   --> B_1  D_3  S_3  
     e( 26 - 26) =    -12.58293  eV     1   --> A_1  D_1  S_1  
     e( 27 - 27) =    -12.57190  eV     1   --> B_1  D_3  S_3  
     e( 28 - 28) =    -12.57086  eV     1   --> A_1  D_1  S_1  
     e( 29 - 29) =    -12.56935  eV     1   --> B_2  D_4  S_4  
     e( 30 - 30) =    -12.56890  eV     1   --> B_1  D_3  S_3  
     e( 31 - 31) =    -12.56165  eV     1   --> B_2  D_4  S_4  
     e( 32 - 32) =    -12.54170  eV     1   --> B_2  D_4  S_4  
     e( 33 - 33) =    -12.54113  eV     1   --> A_2  D_2  S_2  
     e( 34 - 34) =    -12.52787  eV     1   --> A_1  D_1  S_1  
     e( 35 - 35) =    -12.52409  eV     1   --> A_2  D_2  S_2  
     e( 36 - 36) =    -12.52083  eV     1   --> B_1  D_3  S_3  
     e( 37 - 37) =    -12.52044  eV     1   --> B_2  D_4  S_4  
     e( 38 - 38) =    -12.52014  eV     1   --> A_1  D_1  S_1  
     e( 39 - 39) =    -12.50912  eV     1   --> B_1  D_3  S_3  
     e( 40 - 40) =    -12.50206  eV     1   --> A_2  D_2  S_2  
     e( 41 - 41) =     -9.76648  eV     1   --> A_1  D_1  S_1  
     e( 42 - 42) =     -9.26392  eV     1   --> B_2  D_4  S_4  
     e( 43 - 43) =     -9.26086  eV     1   --> A_2  D_2  S_2  
     e( 44 - 44) =     -8.87611  eV     1   --> B_1  D_3  S_3  
     e( 45 - 45) =     -8.34658  eV     1   --> B_2  D_4  S_4  
     e( 46 - 46) =     -8.28532  eV     1   --> B_1  D_3  S_3  
     e( 47 - 47) =     -7.86973  eV     1   --> A_2  D_2  S_2  
     e( 48 - 48) =     -7.84334  eV     1   --> B_2  D_4  S_4  
     e( 49 - 49) =     -7.82960  eV     1   --> A_1  D_1  S_1  
     e( 50 - 50) =     -7.82883  eV     1   --> A_2  D_2  S_2  
     e( 51 - 51) =     -7.82713  eV     1   --> B_1  D_3  S_3  
     e( 52 - 52) =     -7.60253  eV     1   --> A_1  D_1  S_1  
     e( 53 - 53) =     -7.49267  eV     1   --> B_1  D_3  S_3  
     e( 54 - 54) =     -7.49161  eV     1   --> A_1  D_1  S_1  
     e( 55 - 55) =     -7.43186  eV     1   --> B_2  D_4  S_4  
     e( 56 - 56) =     -7.42005  eV     1   --> A_2  D_2  S_2  
     e( 57 - 57) =     -1.40561  eV     1   --> B_2  D_4  S_4  
     e( 58 - 58) =     -0.75157  eV     1   --> A_1  D_1  S_1  
     e( 59 - 59) =     -0.74909  eV     1   --> B_1  D_3  S_3  
     e( 60 - 60) =     -0.53528  eV     1   --> A_2  D_2  S_2  
     e( 61 - 61) =      0.07812  eV     1   --> B_1  D_3  S_3  
     e( 62 - 62) =      0.71306  eV     1   --> A_1  D_1  S_1  
     e( 63 - 63) =      0.86084  eV     1   --> A_2  D_2  S_2  
     e( 64 - 64) =      0.86325  eV     1   --> B_2  D_4  S_4  
     e( 65 - 65) =      3.33299  eV     1   --> B_1  D_3  S_3  
     e( 66 - 66) =      3.75578  eV     1   --> A_1  D_1  S_1  
     e( 67 - 67) =      4.17959  eV     1   --> A_2  D_2  S_2  
     e( 68 - 68) =      4.19664  eV     1   --> B_2  D_4  S_4  
     e( 69 - 69) =      4.20213  eV     1   --> A_2  D_2  S_2  
     e( 70 - 70) =      4.58772  eV     1   --> A_1  D_1  S_1  
     e( 71 - 71) =      4.61609  eV     1   --> B_2  D_4  S_4  
     e( 72 - 72) =      4.67675  eV     1   --> A_1  D_1  S_1  
     e( 73 - 73) =      4.75812  eV     1   --> A_2  D_2  S_2  
     e( 74 - 74) =      4.75917  eV     1   --> B_2  D_4  S_4  
     e( 75 - 75) =      4.80486  eV     1   --> B_2  D_4  S_4  
     e( 76 - 76) =      4.83555  eV     1   --> A_2  D_2  S_2  
     e( 77 - 77) =      4.99680  eV     1   --> B_1  D_3  S_3  
     e( 78 - 78) =      5.00971  eV     1   --> A_1  D_1  S_1  
     e( 79 - 79) =      5.06799  eV     1   --> B_1  D_3  S_3  
     e( 80 - 80) =      5.16947  eV     1   --> B_1  D_3  S_3  
     e( 81 - 81) =      5.46146  eV     1   --> A_2  D_2  S_2  
     e( 82 - 82) =      5.58651  eV     1   --> B_1  D_3  S_3  
     e( 83 - 83) =      5.59309  eV     1   --> A_1  D_1  S_1  
     e( 84 - 84) =      5.94591  eV     1   --> B_1  D_3  S_3  
     e( 85 - 85) =      5.96613  eV     1   --> B_2  D_4  S_4  
     e( 86 - 86) =      5.98093  eV     1   --> A_2  D_2  S_2  
     e( 87 - 87) =      6.16085  eV     1   --> A_1  D_1  S_1  
     e( 88 - 88) =      6.16909  eV     1   --> B_2  D_4  S_4  
     e( 89 - 89) =      6.37128  eV     1   --> A_1  D_1  S_1  
     e( 90 - 90) =      6.45353  eV     1   --> B_1  D_3  S_3  
     e( 91 - 91) =      6.49117  eV     1   --> A_1  D_1  S_1  
     e( 92 - 92) =      6.63810  eV     1   --> A_2  D_2  S_2  
     e( 93 - 93) =      6.63880  eV     1   --> B_2  D_4  S_4  
     e( 94 - 94) =      6.75895  eV     1   --> B_2  D_4  S_4  
     e( 95 - 95) =      6.92323  eV     1   --> A_2  D_2  S_2  
     e( 96 - 96) =      6.95280  eV     1   --> B_2  D_4  S_4  
     e( 97 - 97) =      6.96103  eV     1   --> A_2  D_2  S_2  
     e( 98 - 98) =      7.01627  eV     1   --> B_2  D_4  S_4  
     e( 99 - 99) =      7.02886  eV     1   --> A_1  D_1  S_1  
     e(100 -100) =      7.03331  eV     1   --> B_1  D_3  S_3  
     e(101 -101) =      7.04451  eV     1   --> A_1  D_1  S_1  
     e(102 -102) =      7.05454  eV     1   --> B_2  D_4  S_4  
     e(103 -103) =      7.12704  eV     1   --> A_2  D_2  S_2  
     e(104 -104) =      7.24077  eV     1   --> B_1  D_3  S_3  
     e(105 -105) =      7.24649  eV     1   --> A_1  D_1  S_1  
     e(106 -106) =      7.43963  eV     1   --> A_2  D_2  S_2  
     e(107 -107) =      7.48661  eV     1   --> A_1  D_1  S_1  
     e(108 -108) =      7.56108  eV     1   --> B_1  D_3  S_3  
     e(109 -109) =      7.68679  eV     1   --> B_1  D_3  S_3  
     e(110 -110) =      7.81286  eV     1   --> B_2  D_4  S_4  
     e(111 -111) =      7.81765  eV     1   --> A_2  D_2  S_2  
     e(112 -112) =      8.02567  eV     1   --> A_1  D_1  S_1  
     e(113 -113) =      8.05697  eV     1   --> B_1  D_3  S_3  
     e(114 -114) =      8.08618  eV     1   --> A_1  D_1  S_1  
     e(115 -115) =      8.14732  eV     1   --> B_2  D_4  S_4  
     e(116 -116) =      8.16681  eV     1   --> A_2  D_2  S_2  
     e(117 -117) =      8.30996  eV     1   --> B_2  D_4  S_4  
     e(118 -118) =      8.31290  eV     1   --> A_2  D_2  S_2  
     e(119 -119) =      8.57881  eV     1   --> A_1  D_1  S_1  
     e(120 -120) =      8.57899  eV     1   --> B_1  D_3  S_3  
     e(121 -121) =      8.80006  eV     1   --> B_2  D_4  S_4  
     e(122 -122) =      8.80130  eV     1   --> A_2  D_2  S_2  
     e(123 -123) =      8.84302  eV     1   --> B_1  D_3  S_3  
     e(124 -124) =      8.85142  eV     1   --> A_2  D_2  S_2  
     e(125 -125) =      8.91862  eV     1   --> B_1  D_3  S_3  
     e(126 -126) =      9.10263  eV     1   --> B_2  D_4  S_4  
     e(127 -127) =      9.20787  eV     1   --> B_1  D_3  S_3  
     e(128 -128) =      9.21102  eV     1   --> A_1  D_1  S_1  
     e(129 -129) =      9.98583  eV     1   --> B_1  D_3  S_3  
     e(130 -130) =     10.43432  eV     1   --> A_1  D_1  S_1  
     e(131 -131) =     10.57293  eV     1   --> B_2  D_4  S_4  
     e(132 -132) =     10.63101  eV     1   --> A_2  D_2  S_2  
     e(133 -133) =     11.64775  eV     1   --> B_1  D_3  S_3  
     e(134 -134) =     12.15335  eV     1   --> B_2  D_4  S_4  
     e(135 -135) =     12.68025  eV     1   --> A_1  D_1  S_1  
     e(136 -136) =     12.97407  eV     1   --> A_2  D_2  S_2  
     e(137 -137) =     13.31788  eV     1   --> B_1  D_3  S_3  
     e(138 -138) =     13.31912  eV     1   --> A_1  D_1  S_1  
     e(139 -139) =     13.36330  eV     1   --> B_2  D_4  S_4  
     e(140 -140) =     13.73215  eV     1   --> A_2  D_2  S_2  
     e(141 -141) =     14.30678  eV     1   --> A_2  D_2  S_2  
     e(142 -142) =     14.32036  eV     1   --> B_2  D_4  S_4  
     e(143 -143) =     14.36454  eV     1   --> B_1  D_3  S_3  
     e(144 -144) =     14.43562  eV     1   --> B_2  D_4  S_4  
     e(145 -145) =     14.57621  eV     1   --> A_1  D_1  S_1  
     e(146 -146) =     14.57999  eV     1   --> B_1  D_3  S_3  
     e(147 -147) =     14.64874  eV     1   --> B_1  D_3  S_3  
     e(148 -148) =     15.00677  eV     1   --> A_2  D_2  S_2  
     e(149 -149) =     15.02860  eV     1   --> A_2  D_2  S_2  
     e(150 -150) =     15.02878  eV     1   --> B_2  D_4  S_4  
     e(151 -151) =     15.40993  eV     1   --> A_1  D_1  S_1  
     e(152 -152) =     15.49549  eV     1   --> A_2  D_2  S_2  
     e(153 -153) =     15.76955  eV     1   --> A_1  D_1  S_1  
     e(154 -154) =     15.83294  eV     1   --> B_2  D_4  S_4  
     e(155 -155) =     15.83350  eV     1   --> A_2  D_2  S_2  
     e(156 -156) =     15.92618  eV     1   --> B_1  D_3  S_3  

 **************************************************************************

 **************************************************************************

                    xk=(   0.00000,   0.00590,   0.00000  )

     Band symmetry, C_2v (mm2)  point group:

     e(  1 -  1) =    -12.92749  eV     1   --> A_2  D_2  S_2  
     e(  2 -  2) =    -12.89568  eV     1   --> A_1  D_1  S_1  
     e(  3 -  3) =    -12.88251  eV     1   --> A_1  D_1  S_1  
     e(  4 -  4) =    -12.88228  eV     1   --> B_1  D_3  S_3  
     e(  5 -  5) =    -12.87637  eV     1   --> A_2  D_2  S_2  
     e(  6 -  6) =    -12.87219  eV     1   --> B_2  D_4  S_4  
     e(  7 -  7) =    -12.86227  eV     1   --> B_2  D_4  S_4  
     e(  8 -  8) =    -12.84830  eV     1   --> A_2  D_2  S_2  
     e(  9 -  9) =    -12.83759  eV     1   --> B_1  D_3  S_3  
     e( 10 - 10) =    -12.81076  eV     1   --> A_1  D_1  S_1  
     e( 11 - 11) =    -12.80989  eV     1   --> B_1  D_3  S_3  
     e( 12 - 12) =    -12.78553  eV     1   --> B_2  D_4  S_4  
     e( 13 - 13) =    -12.65556  eV     1   --> A_2  D_2  S_2  
     e( 14 - 14) =    -12.65307  eV     1   --> B_2  D_4  S_4  
     e( 15 - 15) =    -12.63873  eV     1   --> A_1  D_1  S_1  
     e( 16 - 16) =    -12.63684  eV     1   --> B_1  D_3  S_3  
     e( 17 - 17) =    -12.62726  eV     1   --> A_1  D_1  S_1  
     e( 18 - 18) =    -12.61622  eV     1   --> A_2  D_2  S_2  
     e( 19 - 19) =    -12.61389  eV     1   --> B_2  D_4  S_4  
     e( 20 - 20) =    -12.60595  eV     1   --> B_1  D_3  S_3  
     e( 21 - 21) =    -12.59140  eV     1   --> A_2  D_2  S_2  
     e( 22 - 22) =    -12.58700  eV     1   --> A_1  D_1  S_1  
     e( 23 - 23) =    -12.58649  eV     1   --> B_1  D_3  S_3  
     e( 24 - 24) =    -12.58618  eV     1   --> A_2  D_2  S_2  
     e( 25 - 25) =    -12.58591  eV     1   --> B_2  D_4  S_4  
     e( 26 - 26) =    -12.58385  eV     1   --> A_1  D_1  S_1  
     e( 27 - 27) =    -12.57448  eV     1   --> B_1  D_3  S_3  
     e( 28 - 28) =    -12.57414  eV     1   --> A_1  D_1  S_1  
     e( 29 - 29) =    -12.57044  eV     1   --> B_1  D_3  S_3  
     e( 30 - 30) =    -12.56939  eV     1   --> B_2  D_4  S_4  
     e( 31 - 31) =    -12.56285  eV     1   --> B_2  D_4  S_4  
     e( 32 - 32) =    -12.54172  eV     1   --> B_2  D_4  S_4  
     e( 33 - 33) =    -12.54152  eV     1   --> A_2  D_2  S_2  
     e( 34 - 34) =    -12.52873  eV     1   --> A_1  D_1  S_1  
     e( 35 - 35) =    -12.52427  eV     1   --> A_2  D_2  S_2  
     e( 36 - 36) =    -12.52120  eV     1   --> B_1  D_3  S_3  
     e( 37 - 37) =    -12.52092  eV     1   --> A_1  D_1  S_1  
     e( 38 - 38) =    -12.52024  eV     1   --> B_2  D_4  S_4  
     e( 39 - 39) =    -12.51535  eV     1   --> B_1  D_3  S_3  
     e( 40 - 40) =    -12.50187  eV     1   --> A_2  D_2  S_2  
     e( 41 - 41) =     -9.76529  eV     1   --> A_1  D_1  S_1  
     e( 42 - 42) =     -9.26676  eV     1   --> B_2  D_4  S_4  
     e( 43 - 43) =     -9.25987  eV     1   --> A_2  D_2  S_2  
     e( 44 - 44) =     -8.87798  eV     1   --> B_1  D_3  S_3  
     e( 45 - 45) =     -8.34362  eV     1   --> B_2  D_4  S_4  
     e( 46 - 46) =     -8.28447  eV     1   --> B_1  D_3  S_3  
     e( 47 - 47) =     -7.87947  eV     1   --> A_2  D_2  S_2  
     e( 48 - 48) =     -7.84269  eV     1   --> B_2  D_4  S_4  
     e( 49 - 49) =     -7.83091  eV     1   --> A_1  D_1  S_1  
     e( 50 - 50) =     -7.82536  eV     1   --> B_1  D_3  S_3  
     e( 51 - 51) =     -7.81951  eV     1   --> A_2  D_2  S_2  
     e( 52 - 52) =     -7.60399  eV     1   --> A_1  D_1  S_1  
     e( 53 - 53) =     -7.49330  eV     1   --> B_1  D_3  S_3  
     e( 54 - 54) =     -7.49093  eV     1   --> A_1  D_1  S_1  
     e( 55 - 55) =     -7.43195  eV     1   --> B_2  D_4  S_4  
     e( 56 - 56) =     -7.42103  eV     1   --> A_2  D_2  S_2  
     e( 57 - 57) =     -1.40382  eV     1   --> B_2  D_4  S_4  
     e( 58 - 58) =     -0.75443  eV     1   --> A_1  D_1  S_1  
     e( 59 - 59) =     -0.74865  eV     1   --> B_1  D_3  S_3  
     e( 60 - 60) =     -0.53628  eV     1   --> A_2  D_2  S_2  
     e( 61 - 61) =      0.08078  eV     1   --> B_1  D_3  S_3  
     e( 62 - 62) =      0.71339  eV     1   --> A_1  D_1  S_1  
     e( 63 - 63) =      0.85782  eV     1   --> A_2  D_2  S_2  
     e( 64 - 64) =      0.86289  eV     1   --> B_2  D_4  S_4  
     e( 65 - 65) =      3.33548  eV     1   --> B_1  D_3  S_3  
     e( 66 - 66) =      3.75785  eV     1   --> A_1  D_1  S_1  
     e( 67 - 67) =      4.17521  eV     1   --> A_2  D_2  S_2  
     e( 68 - 68) =      4.19558  eV     1   --> B_2  D_4  S_4  
     e( 69 - 69) =      4.20653  eV     1   --> A_2  D_2  S_2  
     e( 70 - 70) =      4.58311  eV     1   --> A_1  D_1  S_1  
     e( 71 - 71) =      4.61756  eV     1   --> B_2  D_4  S_4  
     e( 72 - 72) =      4.67295  eV     1   --> A_1  D_1  S_1  
     e( 73 - 73) =      4.74267  eV     1   --> A_2  D_2  S_2  
     e( 74 - 74) =      4.75958  eV     1   --> B_2  D_4  S_4  
     e( 75 - 75) =      4.80477  eV     1   --> B_2  D_4  S_4  
     e( 76 - 76) =      4.85724  eV     1   --> A_2  D_2  S_2  
     e( 77 - 77) =      4.98937  eV     1   --> B_1  D_3  S_3  
     e( 78 - 78) =      5.01464  eV     1   --> A_1  D_1  S_1  
     e( 79 - 79) =      5.07162  eV     1   --> B_1  D_3  S_3  
     e( 80 - 80) =      5.16646  eV     1   --> B_1  D_3  S_3  
     e( 81 - 81) =      5.46395  eV     1   --> A_2  D_2  S_2  
     e( 82 - 82) =      5.58179  eV     1   --> B_1  D_3  S_3  
     e( 83 - 83) =      5.59615  eV     1   --> A_1  D_1  S_1  
     e( 84 - 84) =      5.94942  eV     1   --> B_2  D_4  S_4  
     e( 85 - 85) =      5.95429  eV     1   --> B_1  D_3  S_3  
     e( 86 - 86) =      5.97949  eV     1   --> A_2  D_2  S_2  
     e( 87 - 87) =      6.15553  eV     1   --> A_1  D_1  S_1  
     e( 88 - 88) =      6.17864  eV     1   --> B_2  D_4  S_4  
     e( 89 - 89) =      6.34632  eV     1   --> A_1  D_1  S_1  
     e( 90 - 90) =      6.45418  eV     1   --> B_1  D_3  S_3  
     e( 91 - 91) =      6.51782  eV     1   --> A_1  D_1  S_1  
     e( 92 - 92) =      6.63109  eV     1   --> A_2  D_2  S_2  
     e( 93 - 93) =      6.63311  eV     1   --> B_2  D_4  S_4  
     e( 94 - 94) =      6.76908  eV     1   --> B_2  D_4  S_4  
     e( 95 - 95) =      6.92152  eV     1   --> A_2  D_2  S_2  
     e( 96 - 96) =      6.94250  eV     1   --> B_2  D_4  S_4  
     e( 97 - 97) =      6.96052  eV     1   --> A_2  D_2  S_2  
     e( 98 - 98) =      7.01656  eV     1   --> B_2  D_4  S_4  
     e( 99 - 99) =      7.02520  eV     1   --> A_1  D_1  S_1  
     e(100 -100) =      7.02761  eV     1   --> B_1  D_3  S_3  
     e(101 -101) =      7.04876  eV     1   --> A_1  D_1  S_1  
     e(102 -102) =      7.06980  eV     1   --> B_2  D_4  S_4  
     e(103 -103) =      7.13056  eV     1   --> A_2  D_2  S_2  
     e(104 -104) =      7.23801  eV     1   --> B_1  D_3  S_3  
     e(105 -105) =      7.25036  eV     1   --> A_1  D_1  S_1  
     e(106 -106) =      7.44333  eV     1   --> A_2  D_2  S_2  
     e(107 -107) =      7.48733  eV     1   --> A_1  D_1  S_1  
     e(108 -108) =      7.55864  eV     1   --> B_1  D_3  S_3  
     e(109 -109) =      7.68500  eV     1   --> B_1  D_3  S_3  
     e(110 -110) =      7.80979  eV     1   --> B_2  D_4  S_4  
     e(111 -111) =      7.82044  eV     1   --> A_2  D_2  S_2  
     e(112 -112) =      8.00965  eV     1   --> A_1  D_1  S_1  
     e(113 -113) =      8.05729  eV     1   --> B_1  D_3  S_3  
     e(114 -114) =      8.10138  eV     1   --> A_1  D_1  S_1  
     e(115 -115) =      8.14420  eV     1   --> B_2  D_4  S_4  
     e(116 -116) =      8.16663  eV     1   --> A_2  D_2  S_2  
     e(117 -117) =      8.30783  eV     1   --> B_2  D_4  S_4  
     e(118 -118) =      8.31395  eV     1   --> A_2  D_2  S_2  
     e(119 -119) =      8.57693  eV     1   --> B_1  D_3  S_3  
     e(120 -120) =      8.57733  eV     1   --> A_1  D_1  S_1  
     e(121 -121) =      8.79685  eV     1   --> B_2  D_4  S_4  
     e(122 -122) =      8.79966  eV     1   --> A_2  D_2  S_2  
     e(123 -123) =      8.84381  eV     1   --> B_1  D_3  S_3  
     e(124 -124) =      8.85238  eV     1   --> A_2  D_2  S_2  
     e(125 -125) =      8.91655  eV     1   --> B_1  D_3  S_3  
     e(126 -126) =      9.10293  eV     1   --> B_2  D_4  S_4  
     e(127 -127) =      9.20327  eV     1   --> B_1  D_3  S_3  
     e(128 -128) =      9.20844  eV     1   --> A_1  D_1  S_1  
     e(129 -129) =      9.98907  eV     1   --> B_1  D_3  S_3  
     e(130 -130) =     10.43526  eV     1   --> A_1  D_1  S_1  
     e(131 -131) =     10.57287  eV     1   --> B_2  D_4  S_4  
     e(132 -132) =     10.63039  eV     1   --> A_2  D_2  S_2  
     e(133 -133) =     11.65543  eV     1   --> B_1  D_3  S_3  
     e(134 -134) =     12.15835  eV     1   --> B_2  D_4  S_4  
     e(135 -135) =     12.67644  eV     1   --> A_1  D_1  S_1  
     e(136 -136) =     12.97103  eV     1   --> A_2  D_2  S_2  
     e(137 -137) =     13.31803  eV     1   --> B_1  D_3  S_3  
     e(138 -138) =     13.32080  eV     1   --> A_1  D_1  S_1  
     e(139 -139) =     13.35334  eV     1   --> B_2  D_4  S_4  
     e(140 -140) =     13.72826  eV     1   --> A_2  D_2  S_2  
     e(141 -141) =     14.30390  eV     1   --> A_2  D_2  S_2  
     e(142 -142) =     14.33309  eV     1   --> B_2  D_4  S_4  
     e(143 -143) =     14.36073  eV     1   --> B_1  D_3  S_3  
     e(144 -144) =     14.43290  eV     1   --> B_2  D_4  S_4  
     e(145 -145) =     14.56876  eV     1   --> A_1  D_1  S_1  
     e(146 -146) =     14.57803  eV     1   --> B_1  D_3  S_3  
     e(147 -147) =     14.64971  eV     1   --> B_1  D_3  S_3  
     e(148 -148) =     14.99053  eV     1   --> A_2  D_2  S_2  
     e(149 -149) =     15.03527  eV     1   --> B_2  D_4  S_4  
     e(150 -150) =     15.03629  eV     1   --> A_2  D_2  S_2  
     e(151 -151) =     15.41507  eV     1   --> A_1  D_1  S_1  
     e(152 -152) =     15.50946  eV     1   --> A_2  D_2  S_2  
     e(153 -153) =     15.76555  eV     1   --> A_1  D_1  S_1  
     e(154 -154) =     15.83035  eV     1   --> B_2  D_4  S_4  
     e(155 -155) =     15.83393  eV     1   --> A_2  D_2  S_2  
     e(156 -156) =     15.93022  eV     1   --> B_1  D_3  S_3  

 **************************************************************************

 **************************************************************************

                    xk=(   0.00000,   0.00787,   0.00000  )

     Band symmetry, C_2v (mm2)  point group:

     e(  1 -  1) =    -12.92767  eV     1   --> A_2  D_2  S_2  
     e(  2 -  2) =    -12.89437  eV     1   --> A_1  D_1  S_1  
     e(  3 -  3) =    -12.88223  eV     1   --> A_1  D_1  S_1  
     e(  4 -  4) =    -12.88089  eV     1   --> B_1  D_3  S_3  
     e(  5 -  5) =    -12.87560  eV     1   --> A_2  D_2  S_2  
     e(  6 -  6) =    -12.86614  eV     1   --> B_2  D_4  S_4  
     e(  7 -  7) =    -12.86209  eV     1   --> B_2  D_4  S_4  
     e(  8 -  8) =    -12.84607  eV     1   --> A_2  D_2  S_2  
     e(  9 -  9) =    -12.83715  eV     1   --> B_1  D_3  S_3  
     e( 10 - 10) =    -12.81104  eV     1   --> A_1  D_1  S_1  
     e( 11 - 11) =    -12.80958  eV     1   --> B_1  D_3  S_3  
     e( 12 - 12) =    -12.78030  eV     1   --> B_2  D_4  S_4  
     e( 13 - 13) =    -12.65323  eV     1   --> A_2  D_2  S_2  
     e( 14 - 14) =    -12.64521  eV     1   --> B_2  D_4  S_4  
     e( 15 - 15) =    -12.63818  eV     1   --> B_1  D_3  S_3  
     e( 16 - 16) =    -12.63702  eV     1   --> A_1  D_1  S_1  
     e( 17 - 17) =    -12.62520  eV     1   --> A_1  D_1  S_1  
     e( 18 - 18) =    -12.61488  eV     1   --> A_2  D_2  S_2  
     e( 19 - 19) =    -12.61401  eV     1   --> B_2  D_4  S_4  
     e( 20 - 20) =    -12.60386  eV     1   --> B_1  D_3  S_3  
     e( 21 - 21) =    -12.59695  eV     1   --> A_1  D_1  S_1  
     e( 22 - 22) =    -12.59041  eV     1   --> A_2  D_2  S_2  
     e( 23 - 23) =    -12.58946  eV     1   --> B_1  D_3  S_3  
     e( 24 - 24) =    -12.58642  eV     1   --> A_2  D_2  S_2  
     e( 25 - 25) =    -12.58312  eV     1   --> A_1  D_1  S_1  
     e( 26 - 26) =    -12.57488  eV     1   --> A_1  D_1  S_1  
     e( 27 - 27) =    -12.57401  eV     1   --> B_1  D_3  S_3  
     e( 28 - 28) =    -12.57359  eV     1   --> B_2  D_4  S_4  
     e( 29 - 29) =    -12.57012  eV     1   --> B_1  D_3  S_3  
     e( 30 - 30) =    -12.56903  eV     1   --> B_2  D_4  S_4  
     e( 31 - 31) =    -12.55914  eV     1   --> B_2  D_4  S_4  
     e( 32 - 32) =    -12.54143  eV     1   --> A_2  D_2  S_2  
     e( 33 - 33) =    -12.53882  eV     1   --> B_2  D_4  S_4  
     e( 34 - 34) =    -12.52916  eV     1   --> A_1  D_1  S_1  
     e( 35 - 35) =    -12.51846  eV     1   --> B_1  D_3  S_3  
     e( 36 - 36) =    -12.51832  eV     1   --> A_2  D_2  S_2  
     e( 37 - 38) =    -12.51770  eV     2   --> A_1  D_1  S_1  
     e( 37 - 38) =    -12.51770  eV     2   --> B_2  D_4  S_4  
     e( 39 - 39) =    -12.51516  eV     1   --> B_1  D_3  S_3  
     e( 40 - 40) =    -12.49472  eV     1   --> A_2  D_2  S_2  
     e( 41 - 41) =     -9.76360  eV     1   --> A_1  D_1  S_1  
     e( 42 - 42) =     -9.27043  eV     1   --> B_2  D_4  S_4  
     e( 43 - 43) =     -9.25846  eV     1   --> A_2  D_2  S_2  
     e( 44 - 44) =     -8.88060  eV     1   --> B_1  D_3  S_3  
     e( 45 - 45) =     -8.33922  eV     1   --> B_2  D_4  S_4  
     e( 46 - 46) =     -8.28321  eV     1   --> B_1  D_3  S_3  
     e( 47 - 47) =     -7.88941  eV     1   --> A_2  D_2  S_2  
     e( 48 - 48) =     -7.84143  eV     1   --> B_2  D_4  S_4  
     e( 49 - 49) =     -7.83258  eV     1   --> A_1  D_1  S_1  
     e( 50 - 50) =     -7.82268  eV     1   --> B_1  D_3  S_3  
     e( 51 - 51) =     -7.81009  eV     1   --> A_2  D_2  S_2  
     e( 52 - 52) =     -7.60589  eV     1   --> A_1  D_1  S_1  
     e( 53 - 53) =     -7.49384  eV     1   --> B_1  D_3  S_3  
     e( 54 - 54) =     -7.48980  eV     1   --> A_1  D_1  S_1  
     e( 55 - 55) =     -7.43195  eV     1   --> B_2  D_4  S_4  
     e( 56 - 56) =     -7.42227  eV     1   --> A_2  D_2  S_2  
     e( 57 - 57) =     -1.40142  eV     1   --> B_2  D_4  S_4  
     e( 58 - 58) =     -0.75822  eV     1   --> A_1  D_1  S_1  
     e( 59 - 59) =     -0.74813  eV     1   --> B_1  D_3  S_3  
     e( 60 - 60) =     -0.53772  eV     1   --> A_2  D_2  S_2  
     e( 61 - 61) =      0.08477  eV     1   --> B_1  D_3  S_3  
     e( 62 - 62) =      0.71450  eV     1   --> A_1  D_1  S_1  
     e( 63 - 63) =      0.85366  eV     1   --> A_2  D_2  S_2  
     e( 64 - 64) =      0.86246  eV     1   --> B_2  D_4  S_4  
     e( 65 - 65) =      3.33986  eV     1   --> B_1  D_3  S_3  
     e( 66 - 66) =      3.76300  eV     1   --> A_1  D_1  S_1  
     e( 67 - 67) =      4.16831  eV     1   --> A_2  D_2  S_2  
     e( 68 - 68) =      4.19438  eV     1   --> B_2  D_4  S_4  
     e( 69 - 69) =      4.21218  eV     1   --> A_2  D_2  S_2  
     e( 70 - 70) =      4.57823  eV     1   --> A_1  D_1  S_1  
     e( 71 - 71) =      4.62001  eV     1   --> B_2  D_4  S_4  
     e( 72 - 72) =      4.66906  eV     1   --> A_1  D_1  S_1  
     e( 73 - 73) =      4.72541  eV     1   --> A_2  D_2  S_2  
     e( 74 - 74) =      4.76082  eV     1   --> B_2  D_4  S_4  
     e( 75 - 75) =      4.80440  eV     1   --> B_2  D_4  S_4  
     e( 76 - 76) =      4.88071  eV     1   --> A_2  D_2  S_2  
     e( 77 - 77) =      4.98094  eV     1   --> B_1  D_3  S_3  
     e( 78 - 78) =      5.02579  eV     1   --> A_1  D_1  S_1  
     e( 79 - 79) =      5.07668  eV     1   --> B_1  D_3  S_3  
     e( 80 - 80) =      5.16481  eV     1   --> B_1  D_3  S_3  
     e( 81 - 81) =      5.46767  eV     1   --> A_2  D_2  S_2  
     e( 82 - 82) =      5.57795  eV     1   --> B_1  D_3  S_3  
     e( 83 - 83) =      5.60092  eV     1   --> A_1  D_1  S_1  
     e( 84 - 84) =      5.92767  eV     1   --> B_2  D_4  S_4  
     e( 85 - 85) =      5.96849  eV     1   --> B_1  D_3  S_3  
     e( 86 - 86) =      5.97751  eV     1   --> A_2  D_2  S_2  
     e( 87 - 87) =      6.14870  eV     1   --> A_1  D_1  S_1  
     e( 88 - 88) =      6.18829  eV     1   --> B_2  D_4  S_4  
     e( 89 - 89) =      6.32183  eV     1   --> A_1  D_1  S_1  
     e( 90 - 90) =      6.45556  eV     1   --> B_1  D_3  S_3  
     e( 91 - 91) =      6.54522  eV     1   --> A_1  D_1  S_1  
     e( 92 - 92) =      6.62210  eV     1   --> A_2  D_2  S_2  
     e( 93 - 93) =      6.62824  eV     1   --> B_2  D_4  S_4  
     e( 94 - 94) =      6.78073  eV     1   --> B_2  D_4  S_4  
     e( 95 - 95) =      6.92251  eV     1   --> A_2  D_2  S_2  
     e( 96 - 96) =      6.93354  eV     1   --> B_2  D_4  S_4  
     e( 97 - 97) =      6.96269  eV     1   --> A_2  D_2  S_2  
     e( 98 - 98) =      7.01690  eV     1   --> B_2  D_4  S_4  
     e( 99 -100) =      7.02228  eV     2   --> A_1  D_1  S_1  
     e( 99 -100) =      7.02228  eV     2   --> B_1  D_3  S_3  
     e(101 -101) =      7.05452  eV     1   --> A_1  D_1  S_1  
     e(102 -102) =      7.08816  eV     1   --> B_2  D_4  S_4  
     e(103 -103) =      7.13525  eV     1   --> A_2  D_2  S_2  
     e(104 -104) =      7.23507  eV     1   --> B_1  D_3  S_3  
     e(105 -105) =      7.25615  eV     1   --> A_1  D_1  S_1  
     e(106 -106) =      7.44854  eV     1   --> A_2  D_2  S_2  
     e(107 -107) =      7.48898  eV     1   --> A_1  D_1  S_1  
     e(108 -108) =      7.55802  eV     1   --> B_1  D_3  S_3  
     e(109 -109) =      7.68574  eV     1   --> B_1  D_3  S_3  
     e(110 -110) =      7.80543  eV     1   --> B_2  D_4  S_4  
     e(111 -111) =      7.82432  eV     1   --> A_2  D_2  S_2  
     e(112 -112) =      7.99446  eV     1   --> A_1  D_1  S_1  
     e(113 -113) =      8.05763  eV     1   --> B_1  D_3  S_3  
     e(114 -114) =      8.11649  eV     1   --> A_1  D_1  S_1  
     e(115 -115) =      8.13997  eV     1   --> B_2  D_4  S_4  
     e(116 -116) =      8.16683  eV     1   --> A_2  D_2  S_2  
     e(117 -117) =      8.30462  eV     1   --> B_2  D_4  S_4  
     e(118 -118) =      8.31640  eV     1   --> A_2  D_2  S_2  
     e(119 -119) =      8.57595  eV     1   --> B_1  D_3  S_3  
     e(120 -120) =      8.57727  eV     1   --> A_1  D_1  S_1  
     e(121 -121) =      8.79403  eV     1   --> B_2  D_4  S_4  
     e(122 -122) =      8.79875  eV     1   --> A_2  D_2  S_2  
     e(123 -123) =      8.84503  eV     1   --> B_1  D_3  S_3  
     e(124 -124) =      8.85344  eV     1   --> A_2  D_2  S_2  
     e(125 -125) =      8.91675  eV     1   --> B_1  D_3  S_3  
     e(126 -126) =      9.10194  eV     1   --> B_2  D_4  S_4  
     e(127 -127) =      9.19642  eV     1   --> B_1  D_3  S_3  
     e(128 -128) =      9.20623  eV     1   --> A_1  D_1  S_1  
     e(129 -129) =      9.99522  eV     1   --> B_1  D_3  S_3  
     e(130 -130) =     10.43823  eV     1   --> A_1  D_1  S_1  
     e(131 -131) =     10.57371  eV     1   --> B_2  D_4  S_4  
     e(132 -132) =     10.62900  eV     1   --> A_2  D_2  S_2  
     e(133 -133) =     11.66662  eV     1   --> B_1  D_3  S_3  
     e(134 -134) =     12.16539  eV     1   --> B_2  D_4  S_4  
     e(135 -135) =     12.67170  eV     1   --> A_1  D_1  S_1  
     e(136 -136) =     12.96774  eV     1   --> A_2  D_2  S_2  
     e(137 -137) =     13.31858  eV     1   --> B_1  D_3  S_3  
     e(138 -138) =     13.32335  eV     1   --> A_1  D_1  S_1  
     e(139 -139) =     13.33919  eV     1   --> B_2  D_4  S_4  
     e(140 -140) =     13.72318  eV     1   --> A_2  D_2  S_2  
     e(141 -141) =     14.29938  eV     1   --> A_2  D_2  S_2  
     e(142 -142) =     14.34992  eV     1   --> B_2  D_4  S_4  
     e(143 -143) =     14.35707  eV     1   --> B_1  D_3  S_3  
     e(144 -144) =     14.42980  eV     1   --> B_2  D_4  S_4  
     e(145 -145) =     14.56077  eV     1   --> A_1  D_1  S_1  
     e(146 -146) =     14.57554  eV     1   --> B_1  D_3  S_3  
     e(147 -147) =     14.65141  eV     1   --> B_1  D_3  S_3  
     e(148 -148) =     14.97013  eV     1   --> A_2  D_2  S_2  
     e(149 -149) =     15.04456  eV     1   --> B_2  D_4  S_4  
     e(150 -150) =     15.04657  eV     1   --> A_2  D_2  S_2  
     e(151 -151) =     15.42382  eV     1   --> A_1  D_1  S_1  
     e(152 -152) =     15.52527  eV     1   --> A_2  D_2  S_2  
     e(153 -153) =     15.76183  eV     1   --> A_1  D_1  S_1  
     e(154 -154) =     15.82649  eV     1   --> B_2  D_4  S_4  
     e(155 -155) =     15.83637  eV     1   --> A_2  D_2  S_2  
     e(156 -156) =     15.93587  eV     1   --> B_1  D_3  S_3  

 **************************************************************************

 **************************************************************************

                    xk=(   0.00000,   0.00983,   0.00000  )

     Band symmetry, C_2v (mm2)  point group:

     e(  1 -  1) =    -12.92180  eV     1   --> A_2  D_2  S_2  
     e(  2 -  2) =    -12.88928  eV     1   --> A_1  D_1  S_1  
     e(  3 -  3) =    -12.88025  eV     1   --> A_1  D_1  S_1  
     e(  4 -  4) =    -12.87885  eV     1   --> B_1  D_3  S_3  
     e(  5 -  5) =    -12.87084  eV     1   --> A_2  D_2  S_2  
     e(  6 -  6) =    -12.86290  eV     1   --> B_2  D_4  S_4  
     e(  7 -  7) =    -12.86119  eV     1   --> B_2  D_4  S_4  
     e(  8 -  8) =    -12.84213  eV     1   --> A_2  D_2  S_2  
     e(  9 -  9) =    -12.83612  eV     1   --> B_1  D_3  S_3  
     e( 10 - 10) =    -12.81090  eV     1   --> A_1  D_1  S_1  
     e( 11 - 11) =    -12.80729  eV     1   --> B_1  D_3  S_3  
     e( 12 - 12) =    -12.77637  eV     1   --> B_2  D_4  S_4  
     e( 13 - 13) =    -12.65092  eV     1   --> A_2  D_2  S_2  
     e( 14 - 14) =    -12.64296  eV     1   --> B_2  D_4  S_4  
     e( 15 - 15) =    -12.63418  eV     1   --> A_1  D_1  S_1  
     e( 16 - 16) =    -12.63282  eV     1   --> B_1  D_3  S_3  
     e( 17 - 17) =    -12.62066  eV     1   --> A_1  D_1  S_1  
     e( 18 - 18) =    -12.61252  eV     1   --> B_2  D_4  S_4  
     e( 19 - 19) =    -12.60761  eV     1   --> A_2  D_2  S_2  
     e( 20 - 20) =    -12.60095  eV     1   --> B_1  D_3  S_3  
     e( 21 - 21) =    -12.59538  eV     1   --> A_1  D_1  S_1  
     e( 22 - 22) =    -12.58908  eV     1   --> B_1  D_3  S_3  
     e( 23 - 23) =    -12.58701  eV     1   --> A_2  D_2  S_2  
     e( 24 - 24) =    -12.58284  eV     1   --> A_2  D_2  S_2  
     e( 25 - 25) =    -12.57640  eV     1   --> A_1  D_1  S_1  
     e( 26 - 26) =    -12.57457  eV     1   --> A_1  D_1  S_1  
     e( 27 - 27) =    -12.57250  eV     1   --> B_1  D_3  S_3  
     e( 28 - 28) =    -12.56869  eV     1   --> B_1  D_3  S_3  
     e( 29 - 29) =    -12.56854  eV     1   --> B_2  D_4  S_4  
     e( 30 - 30) =    -12.56722  eV     1   --> B_2  D_4  S_4  
     e( 31 - 31) =    -12.55453  eV     1   --> B_2  D_4  S_4  
     e( 32 - 32) =    -12.53787  eV     1   --> B_2  D_4  S_4  
     e( 33 - 33) =    -12.53394  eV     1   --> A_2  D_2  S_2  
     e( 34 - 34) =    -12.52774  eV     1   --> A_1  D_1  S_1  
     e( 35 - 35) =    -12.51659  eV     1   --> B_2  D_4  S_4  
     e( 36 - 36) =    -12.51615  eV     1   --> B_1  D_3  S_3  
     e( 37 - 37) =    -12.51467  eV     1   --> A_1  D_1  S_1  
     e( 38 - 38) =    -12.51371  eV     1   --> A_2  D_2  S_2  
     e( 39 - 39) =    -12.51075  eV     1   --> B_1  D_3  S_3  
     e( 40 - 40) =    -12.49066  eV     1   --> A_2  D_2  S_2  
     e( 41 - 41) =     -9.76142  eV     1   --> A_1  D_1  S_1  
     e( 42 - 42) =     -9.27534  eV     1   --> B_2  D_4  S_4  
     e( 43 - 43) =     -9.25666  eV     1   --> A_2  D_2  S_2  
     e( 44 - 44) =     -8.88385  eV     1   --> B_1  D_3  S_3  
     e( 45 - 45) =     -8.33376  eV     1   --> B_2  D_4  S_4  
     e( 46 - 46) =     -8.28159  eV     1   --> B_1  D_3  S_3  
     e( 47 - 47) =     -7.89923  eV     1   --> A_2  D_2  S_2  
     e( 48 - 48) =     -7.84016  eV     1   --> B_2  D_4  S_4  
     e( 49 - 49) =     -7.83469  eV     1   --> A_1  D_1  S_1  
     e( 50 - 50) =     -7.81907  eV     1   --> B_1  D_3  S_3  
     e( 51 - 51) =     -7.80014  eV     1   --> A_2  D_2  S_2  
     e( 52 - 52) =     -7.60801  eV     1   --> A_1  D_1  S_1  
     e( 53 - 53) =     -7.49460  eV     1   --> B_1  D_3  S_3  
     e( 54 - 54) =     -7.48824  eV     1   --> A_1  D_1  S_1  
     e( 55 - 55) =     -7.43188  eV     1   --> B_2  D_4  S_4  
     e( 56 - 56) =     -7.42371  eV     1   --> A_2  D_2  S_2  
     e( 57 - 57) =     -1.39810  eV     1   --> B_2  D_4  S_4  
     e( 58 - 58) =     -0.76303  eV     1   --> A_1  D_1  S_1  
     e( 59 - 59) =     -0.74737  eV     1   --> B_1  D_3  S_3  
     e( 60 - 60) =     -0.53942  eV     1   --> A_2  D_2  S_2  
     e( 61 - 61) =      0.08959  eV     1   --> B_1  D_3  S_3  
     e( 62 - 62) =      0.71599  eV     1   --> A_1  D_1  S_1  
     e( 63 - 63) =      0.84847  eV     1   --> A_2  D_2  S_2  
     e( 64 - 64) =      0.86194  eV     1   --> B_2  D_4  S_4  
     e( 65 - 65) =      3.34501  eV     1   --> B_1  D_3  S_3  
     e( 66 - 66) =      3.77032  eV     1   --> A_1  D_1  S_1  
     e( 67 - 67) =      4.16019  eV     1   --> A_2  D_2  S_2  
     e( 68 - 68) =      4.19373  eV     1   --> B_2  D_4  S_4  
     e( 69 - 69) =      4.22012  eV     1   --> A_2  D_2  S_2  
     e( 70 - 70) =      4.57176  eV     1   --> A_1  D_1  S_1  
     e( 71 - 71) =      4.62301  eV     1   --> B_2  D_4  S_4  
     e( 72 - 72) =      4.66454  eV     1   --> A_1  D_1  S_1  
     e( 73 - 73) =      4.71196  eV     1   --> A_2  D_2  S_2  
     e( 74 - 74) =      4.76189  eV     1   --> B_2  D_4  S_4  
     e( 75 - 75) =      4.80603  eV     1   --> B_2  D_4  S_4  
     e( 76 - 76) =      4.90974  eV     1   --> A_2  D_2  S_2  
     e( 77 - 77) =      4.97091  eV     1   --> B_1  D_3  S_3  
     e( 78 - 78) =      5.03802  eV     1   --> A_1  D_1  S_1  
     e( 79 - 79) =      5.08209  eV     1   --> B_1  D_3  S_3  
     e( 80 - 80) =      5.16060  eV     1   --> B_1  D_3  S_3  
     e( 81 - 81) =      5.47259  eV     1   --> A_2  D_2  S_2  
     e( 82 - 82) =      5.57387  eV     1   --> B_1  D_3  S_3  
     e( 83 - 83) =      5.60624  eV     1   --> A_1  D_1  S_1  
     e( 84 - 84) =      5.90423  eV     1   --> B_2  D_4  S_4  
     e( 85 - 85) =      5.97643  eV     1   --> A_2  D_2  S_2  
     e( 86 - 86) =      5.98386  eV     1   --> B_1  D_3  S_3  
     e( 87 - 87) =      6.14063  eV     1   --> A_1  D_1  S_1  
     e( 88 - 88) =      6.19719  eV     1   --> B_2  D_4  S_4  
     e( 89 - 89) =      6.29818  eV     1   --> A_1  D_1  S_1  
     e( 90 - 90) =      6.45847  eV     1   --> B_1  D_3  S_3  
     e( 91 - 91) =      6.57359  eV     1   --> A_1  D_1  S_1  
     e( 92 - 92) =      6.61171  eV     1   --> A_2  D_2  S_2  
     e( 93 - 93) =      6.62681  eV     1   --> B_2  D_4  S_4  
     e( 94 - 94) =      6.79348  eV     1   --> B_2  D_4  S_4  
     e( 95 - 95) =      6.92108  eV     1   --> A_2  D_2  S_2  
     e( 96 - 96) =      6.92663  eV     1   --> B_2  D_4  S_4  
     e( 97 - 97) =      6.96797  eV     1   --> A_2  D_2  S_2  
     e( 98 - 98) =      7.01350  eV     1   --> B_1  D_3  S_3  
     e( 99 - 99) =      7.01731  eV     1   --> B_2  D_4  S_4  
     e(100 -100) =      7.01930  eV     1   --> A_1  D_1  S_1  
     e(101 -101) =      7.06055  eV     1   --> A_1  D_1  S_1  
     e(102 -102) =      7.10927  eV     1   --> B_2  D_4  S_4  
     e(103 -103) =      7.14114  eV     1   --> A_2  D_2  S_2  
     e(104 -104) =      7.23180  eV     1   --> B_1  D_3  S_3  
     e(105 -105) =      7.26409  eV     1   --> A_1  D_1  S_1  
     e(106 -106) =      7.45512  eV     1   --> A_2  D_2  S_2  
     e(107 -107) =      7.49182  eV     1   --> A_1  D_1  S_1  
     e(108 -108) =      7.55484  eV     1   --> B_1  D_3  S_3  
     e(109 -109) =      7.68700  eV     1   --> B_1  D_3  S_3  
     e(110 -110) =      7.80016  eV     1   --> B_2  D_4  S_4  
     e(111 -111) =      7.82994  eV     1   --> A_2  D_2  S_2  
     e(112 -112) =      7.98006  eV     1   --> A_1  D_1  S_1  
     e(113 -113) =      8.05777  eV     1   --> B_1  D_3  S_3  
     e(114 -114) =      8.13262  eV     1   --> A_1  D_1  S_1  
     e(115 -115) =      8.13476  eV     1   --> B_2  D_4  S_4  
     e(116 -116) =      8.16719  eV     1   --> A_2  D_2  S_2  
     e(117 -117) =      8.30164  eV     1   --> B_2  D_4  S_4  
     e(118 -118) =      8.31990  eV     1   --> A_2  D_2  S_2  
     e(119 -119) =      8.57446  eV     1   --> B_1  D_3  S_3  
     e(120 -120) =      8.57631  eV     1   --> A_1  D_1  S_1  
     e(121 -121) =      8.79123  eV     1   --> B_2  D_4  S_4  
     e(122 -122) =      8.79842  eV     1   --> A_2  D_2  S_2  
     e(123 -123) =      8.84637  eV     1   --> B_1  D_3  S_3  
     e(124 -124) =      8.85584  eV     1   --> A_2  D_2  S_2  
     e(125 -125) =      8.91589  eV     1   --> B_1  D_3  S_3  
     e(126 -126) =      9.10293  eV     1   --> B_2  D_4  S_4  
     e(127 -127) =      9.18918  eV     1   --> B_1  D_3  S_3  
     e(128 -128) =      9.20424  eV     1   --> A_1  D_1  S_1  
     e(129 -129) =     10.00190  eV     1   --> B_1  D_3  S_3  
     e(130 -130) =     10.44003  eV     1   --> A_1  D_1  S_1  
     e(131 -131) =     10.57516  eV     1   --> B_2  D_4  S_4  
     e(132 -132) =     10.62909  eV     1   --> A_2  D_2  S_2  
     e(133 -133) =     11.68049  eV     1   --> B_1  D_3  S_3  
     e(134 -134) =     12.17435  eV     1   --> B_2  D_4  S_4  
     e(135 -135) =     12.66591  eV     1   --> A_1  D_1  S_1  
     e(136 -136) =     12.96456  eV     1   --> A_2  D_2  S_2  
     e(137 -137) =     13.31914  eV     1   --> B_1  D_3  S_3  
     e(138 -138) =     13.32348  eV     1   --> B_2  D_4  S_4  
     e(139 -139) =     13.32647  eV     1   --> A_1  D_1  S_1  
     e(140 -140) =     13.71700  eV     1   --> A_2  D_2  S_2  
     e(141 -141) =     14.29322  eV     1   --> A_2  D_2  S_2  
     e(142 -142) =     14.35128  eV     1   --> B_1  D_3  S_3  
     e(143 -143) =     14.36959  eV     1   --> B_2  D_4  S_4  
     e(144 -144) =     14.42851  eV     1   --> B_2  D_4  S_4  
     e(145 -145) =     14.55015  eV     1   --> A_1  D_1  S_1  
     e(146 -146) =     14.57459  eV     1   --> B_1  D_3  S_3  
     e(147 -147) =     14.65275  eV     1   --> B_1  D_3  S_3  
     e(148 -148) =     14.94697  eV     1   --> A_2  D_2  S_2  
     e(149 -149) =     15.05658  eV     1   --> B_2  D_4  S_4  
     e(150 -150) =     15.06005  eV     1   --> A_2  D_2  S_2  
     e(151 -151) =     15.43401  eV     1   --> A_1  D_1  S_1  
     e(152 -152) =     15.54303  eV     1   --> A_2  D_2  S_2  
     e(153 -153) =     15.75725  eV     1   --> A_1  D_1  S_1  
     e(154 -154) =     15.82316  eV     1   --> B_2  D_4  S_4  
     e(155 -155) =     15.84083  eV     1   --> A_2  D_2  S_2  
     e(156 -156) =     15.94299  eV     1   --> B_1  D_3  S_3  

 **************************************************************************

 **************************************************************************

                    xk=(   0.00000,   0.01180,   0.00000  )

     Band symmetry, C_2v (mm2)  point group:

     e(  1 -  1) =    -12.92555  eV     1   --> A_2  D_2  S_2  
     e(  2 -  2) =    -12.88965  eV     1   --> A_1  D_1  S_1  
     e(  3 -  3) =    -12.88052  eV     1   --> B_1  D_3  S_3  
     e(  4 -  4) =    -12.88019  eV     1   --> A_1  D_1  S_1  
     e(  5 -  5) =    -12.87371  eV     1   --> A_2  D_2  S_2  
     e(  6 -  6) =    -12.86643  eV     1   --> B_2  D_4  S_4  
     e(  7 -  7) =    -12.86317  eV     1   --> B_2  D_4  S_4  
     e(  8 -  8) =    -12.84215  eV     1   --> A_2  D_2  S_2  
     e(  9 -  9) =    -12.83633  eV     1   --> B_1  D_3  S_3  
     e( 10 - 10) =    -12.81301  eV     1   --> A_1  D_1  S_1  
     e( 11 - 11) =    -12.80831  eV     1   --> B_1  D_3  S_3  
     e( 12 - 12) =    -12.77692  eV     1   --> B_2  D_4  S_4  
     e( 13 - 13) =    -12.65128  eV     1   --> A_2  D_2  S_2  
     e( 14 - 14) =    -12.64297  eV     1   --> B_2  D_4  S_4  
     e( 15 - 15) =    -12.63779  eV     1   --> B_1  D_3  S_3  
     e( 16 - 16) =    -12.63577  eV     1   --> A_1  D_1  S_1  
     e( 17 - 17) =    -12.62134  eV     1   --> A_1  D_1  S_1  
     e( 18 - 18) =    -12.61251  eV     1   --> B_2  D_4  S_4  
     e( 19 - 19) =    -12.61030  eV     1   --> A_2  D_2  S_2  
     e( 20 - 20) =    -12.60156  eV     1   --> B_1  D_3  S_3  
     e( 21 - 21) =    -12.59760  eV     1   --> A_1  D_1  S_1  
     e( 22 - 22) =    -12.59602  eV     1   --> B_1  D_3  S_3  
     e( 23 - 23) =    -12.59059  eV     1   --> A_2  D_2  S_2  
     e( 24 - 24) =    -12.58297  eV     1   --> A_2  D_2  S_2  
     e( 25 - 25) =    -12.57847  eV     1   --> A_1  D_1  S_1  
     e( 26 - 26) =    -12.57635  eV     1   --> B_1  D_3  S_3  
     e( 27 - 27) =    -12.57621  eV     1   --> A_1  D_1  S_1  
     e( 28 - 28) =    -12.56911  eV     1   --> B_2  D_4  S_4  
     e( 29 - 29) =    -12.56871  eV     1   --> B_1  D_3  S_3  
     e( 30 - 30) =    -12.56806  eV     1   --> B_2  D_4  S_4  
     e( 31 - 31) =    -12.55568  eV     1   --> B_2  D_4  S_4  
     e( 32 - 32) =    -12.53786  eV     1   --> B_2  D_4  S_4  
     e( 33 - 33) =    -12.53519  eV     1   --> A_2  D_2  S_2  
     e( 34 - 34) =    -12.52904  eV     1   --> A_1  D_1  S_1  
     e( 35 - 35) =    -12.51842  eV     1   --> B_1  D_3  S_3  
     e( 36 - 36) =    -12.51659  eV     1   --> B_2  D_4  S_4  
     e( 37 - 37) =    -12.51448  eV     1   --> A_1  D_1  S_1  
     e( 38 - 38) =    -12.51417  eV     1   --> A_2  D_2  S_2  
     e( 39 - 39) =    -12.51290  eV     1   --> B_1  D_3  S_3  
     e( 40 - 40) =    -12.49068  eV     1   --> A_2  D_2  S_2  
     e( 41 - 41) =     -9.75878  eV     1   --> A_1  D_1  S_1  
     e( 42 - 42) =     -9.28133  eV     1   --> B_2  D_4  S_4  
     e( 43 - 43) =     -9.25451  eV     1   --> A_2  D_2  S_2  
     e( 44 - 44) =     -8.88792  eV     1   --> B_1  D_3  S_3  
     e( 45 - 45) =     -8.32752  eV     1   --> B_2  D_4  S_4  
     e( 46 - 46) =     -8.27970  eV     1   --> B_1  D_3  S_3  
     e( 47 - 47) =     -7.91030  eV     1   --> A_2  D_2  S_2  
     e( 48 - 48) =     -7.83899  eV     1   --> B_2  D_4  S_4  
     e( 49 - 49) =     -7.83745  eV     1   --> A_1  D_1  S_1  
     e( 50 - 50) =     -7.81506  eV     1   --> B_1  D_3  S_3  
     e( 51 - 51) =     -7.79087  eV     1   --> A_2  D_2  S_2  
     e( 52 - 52) =     -7.61109  eV     1   --> A_1  D_1  S_1  
     e( 53 - 53) =     -7.49580  eV     1   --> B_1  D_3  S_3  
     e( 54 - 54) =     -7.48672  eV     1   --> A_1  D_1  S_1  
     e( 55 - 55) =     -7.43216  eV     1   --> B_2  D_4  S_4  
     e( 56 - 56) =     -7.42582  eV     1   --> A_2  D_2  S_2  
     e( 57 - 57) =     -1.39430  eV     1   --> B_2  D_4  S_4  
     e( 58 - 58) =     -0.76937  eV     1   --> A_1  D_1  S_1  
     e( 59 - 59) =     -0.74663  eV     1   --> B_1  D_3  S_3  
     e( 60 - 60) =     -0.54170  eV     1   --> A_2  D_2  S_2  
     e( 61 - 61) =      0.09526  eV     1   --> B_1  D_3  S_3  
     e( 62 - 62) =      0.71748  eV     1   --> A_1  D_1  S_1  
     e( 63 - 63) =      0.84187  eV     1   --> A_2  D_2  S_2  
     e( 64 - 64) =      0.86114  eV     1   --> B_2  D_4  S_4  
     e( 65 - 65) =      3.34930  eV     1   --> B_1  D_3  S_3  
     e( 66 - 66) =      3.77846  eV     1   --> A_1  D_1  S_1  
     e( 67 - 67) =      4.14933  eV     1   --> A_2  D_2  S_2  
     e( 68 - 68) =      4.19175  eV     1   --> B_2  D_4  S_4  
     e( 69 - 69) =      4.22747  eV     1   --> A_2  D_2  S_2  
     e( 70 - 70) =      4.56257  eV     1   --> A_1  D_1  S_1  
     e( 71 - 71) =      4.62473  eV     1   --> B_2  D_4  S_4  
     e( 72 - 72) =      4.66001  eV     1   --> A_1  D_1  S_1  
     e( 73 - 73) =      4.69798  eV     1   --> A_2  D_2  S_2  
     e( 74 - 74) =      4.76156  eV     1   --> B_2  D_4  S_4  
     e( 75 - 75) =      4.80560  eV     1   --> B_2  D_4  S_4  
     e( 76 - 76) =      4.93162  eV     1   --> A_2  D_2  S_2  
     e( 77 - 77) =      4.95884  eV     1   --> B_1  D_3  S_3  
     e( 78 - 78) =      5.05068  eV     1   --> A_1  D_1  S_1  
     e( 79 - 79) =      5.08627  eV     1   --> B_1  D_3  S_3  
     e( 80 - 80) =      5.15393  eV     1   --> B_1  D_3  S_3  
     e( 81 - 81) =      5.47767  eV     1   --> A_2  D_2  S_2  
     e( 82 - 82) =      5.56791  eV     1   --> B_1  D_3  S_3  
     e( 83 - 83) =      5.61105  eV     1   --> A_1  D_1  S_1  
     e( 84 - 84) =      5.87847  eV     1   --> B_2  D_4  S_4  
     e( 85 - 85) =      5.97284  eV     1   --> A_2  D_2  S_2  
     e( 86 - 86) =      6.00073  eV     1   --> B_1  D_3  S_3  
     e( 87 - 87) =      6.13110  eV     1   --> A_1  D_1  S_1  
     e( 88 - 88) =      6.20286  eV     1   --> B_2  D_4  S_4  
     e( 89 - 89) =      6.27485  eV     1   --> A_1  D_1  S_1  
     e( 90 - 90) =      6.45957  eV     1   --> B_1  D_3  S_3  
     e( 91 - 91) =      6.59803  eV     1   --> A_2  D_2  S_2  
     e( 92 - 92) =      6.59920  eV     1   --> A_1  D_1  S_1  
     e( 93 - 93) =      6.62467  eV     1   --> B_2  D_4  S_4  
     e( 94 - 94) =      6.80523  eV     1   --> B_2  D_4  S_4  
     e( 95 - 95) =      6.91601  eV     1   --> A_2  D_2  S_2  
     e( 96 - 96) =      6.91991  eV     1   --> B_2  D_4  S_4  
     e( 97 - 97) =      6.97506  eV     1   --> A_2  D_2  S_2  
     e( 98 - 98) =      7.00192  eV     1   --> B_1  D_3  S_3  
     e( 99 - 99) =      7.01562  eV     1   --> A_1  D_1  S_1  
     e(100 -100) =      7.01751  eV     1   --> B_2  D_4  S_4  
     e(101 -101) =      7.06660  eV     1   --> A_1  D_1  S_1  
     e(102 -102) =      7.13053  eV     1   --> B_2  D_4  S_4  
     e(103 -103) =      7.14685  eV     1   --> A_2  D_2  S_2  
     e(104 -104) =      7.22636  eV     1   --> B_1  D_3  S_3  
     e(105 -105) =      7.27085  eV     1   --> A_1  D_1  S_1  
     e(106 -106) =      7.46111  eV     1   --> A_2  D_2  S_2  
     e(107 -107) =      7.49246  eV     1   --> A_1  D_1  S_1  
     e(108 -108) =      7.54994  eV     1   --> B_1  D_3  S_3  
     e(109 -109) =      7.68752  eV     1   --> B_1  D_3  S_3  
     e(110 -110) =      7.79284  eV     1   --> B_2  D_4  S_4  
     e(111 -111) =      7.83602  eV     1   --> A_2  D_2  S_2  
     e(112 -112) =      7.96490  eV     1   --> A_1  D_1  S_1  
     e(113 -113) =      8.05769  eV     1   --> B_1  D_3  S_3  
     e(114 -114) =      8.12687  eV     1   --> B_2  D_4  S_4  
     e(115 -115) =      8.14710  eV     1   --> A_1  D_1  S_1  
     e(116 -116) =      8.16686  eV     1   --> A_2  D_2  S_2  
     e(117 -117) =      8.29618  eV     1   --> B_2  D_4  S_4  
     e(118 -118) =      8.32318  eV     1   --> A_2  D_2  S_2  
     e(119 -119) =      8.57035  eV     1   --> B_1  D_3  S_3  
     e(120 -120) =      8.57340  eV     1   --> A_1  D_1  S_1  
     e(121 -121) =      8.78607  eV     1   --> B_2  D_4  S_4  
     e(122 -122) =      8.79672  eV     1   --> A_2  D_2  S_2  
     e(123 -123) =      8.84762  eV     1   --> B_1  D_3  S_3  
     e(124 -124) =      8.85734  eV     1   --> A_2  D_2  S_2  
     e(125 -125) =      8.91373  eV     1   --> B_1  D_3  S_3  
     e(126 -126) =      9.10172  eV     1   --> B_2  D_4  S_4  
     e(127 -127) =      9.17788  eV     1   --> B_1  D_3  S_3  
     e(128 -128) =      9.19926  eV     1   --> A_1  D_1  S_1  
     e(129 -129) =     10.00910  eV     1   --> B_1  D_3  S_3  
     e(130 -130) =     10.44176  eV     1   --> A_1  D_1  S_1  
     e(131 -131) =     10.57392  eV     1   --> B_2  D_4  S_4  
     e(132 -132) =     10.62617  eV     1   --> A_2  D_2  S_2  
     e(133 -133) =     11.69707  eV     1   --> B_1  D_3  S_3  
     e(134 -134) =     12.18487  eV     1   --> B_2  D_4  S_4  
     e(135 -135) =     12.65856  eV     1   --> A_1  D_1  S_1  
     e(136 -136) =     12.95890  eV     1   --> A_2  D_2  S_2  
     e(137 -137) =     13.30411  eV     1   --> B_2  D_4  S_4  
     e(138 -138) =     13.31943  eV     1   --> B_1  D_3  S_3  
     e(139 -139) =     13.32908  eV     1   --> A_1  D_1  S_1  
     e(140 -140) =     13.70965  eV     1   --> A_2  D_2  S_2  
     e(141 -141) =     14.28324  eV     1   --> A_2  D_2  S_2  
     e(142 -142) =     14.34292  eV     1   --> B_1  D_3  S_3  
     e(143 -143) =     14.38527  eV     1   --> B_2  D_4  S_4  
     e(144 -144) =     14.43141  eV     1   --> B_2  D_4  S_4  
     e(145 -145) =     14.53677  eV     1   --> A_1  D_1  S_1  
     e(146 -146) =     14.57208  eV     1   --> B_1  D_3  S_3  
     e(147 -147) =     14.65229  eV     1   --> B_1  D_3  S_3  
     e(148 -148) =     14.92154  eV     1   --> A_2  D_2  S_2  
     e(149 -149) =     15.07016  eV     1   --> B_2  D_4  S_4  
     e(150 -150) =     15.07509  eV     1   --> A_2  D_2  S_2  
     e(151 -151) =     15.44455  eV     1   --> A_1  D_1  S_1  
     e(152 -152) =     15.55782  eV     1   --> A_2  D_2  S_2  
     e(153 -153) =     15.75102  eV     1   --> A_1  D_1  S_1  
     e(154 -154) =     15.81770  eV     1   --> B_2  D_4  S_4  
     e(155 -155) =     15.84359  eV     1   --> A_2  D_2  S_2  
     e(156 -156) =     15.94862  eV     1   --> B_1  D_3  S_3  

 **************************************************************************

 **************************************************************************

                    xk=(   0.00000,   0.01377,   0.00000  )

     Band symmetry, C_2v (mm2)  point group:

     e(  1 -  1) =    -12.92266  eV     1   --> A_2  D_2  S_2  
     e(  2 -  2) =    -12.88882  eV     1   --> A_1  D_1  S_1  
     e(  3 -  3) =    -12.88038  eV     1   --> B_1  D_3  S_3  
     e(  4 -  4) =    -12.87654  eV     1   --> A_1  D_1  S_1  
     e(  5 -  5) =    -12.87123  eV     1   --> A_2  D_2  S_2  
     e(  6 -  6) =    -12.86242  eV     1   --> B_2  D_4  S_4  
     e(  7 -  7) =    -12.85631  eV     1   --> B_2  D_4  S_4  
     e(  8 -  8) =    -12.84054  eV     1   --> A_2  D_2  S_2  
     e(  9 -  9) =    -12.83587  eV     1   --> B_1  D_3  S_3  
     e( 10 - 10) =    -12.80723  eV     1   --> B_1  D_3  S_3  
     e( 11 - 11) =    -12.80221  eV     1   --> A_1  D_1  S_1  
     e( 12 - 12) =    -12.76803  eV     1   --> B_2  D_4  S_4  
     e( 13 - 13) =    -12.64817  eV     1   --> A_2  D_2  S_2  
     e( 14 - 14) =    -12.64115  eV     1   --> B_2  D_4  S_4  
     e( 15 - 15) =    -12.63762  eV     1   --> B_1  D_3  S_3  
     e( 16 - 16) =    -12.63643  eV     1   --> A_1  D_1  S_1  
     e( 17 - 17) =    -12.62389  eV     1   --> A_1  D_1  S_1  
     e( 18 - 18) =    -12.60991  eV     1   --> B_2  D_4  S_4  
     e( 19 - 19) =    -12.60886  eV     1   --> A_2  D_2  S_2  
     e( 20 - 20) =    -12.60362  eV     1   --> B_1  D_3  S_3  
     e( 21 - 21) =    -12.59625  eV     1   --> A_1  D_1  S_1  
     e( 22 - 22) =    -12.58882  eV     1   --> A_2  D_2  S_2  
     e( 23 - 23) =    -12.58330  eV     1   --> B_1  D_3  S_3  
     e( 24 - 24) =    -12.58122  eV     1   --> A_2  D_2  S_2  
     e( 25 - 25) =    -12.57795  eV     1   --> A_1  D_1  S_1  
     e( 26 - 26) =    -12.57386  eV     1   --> A_1  D_1  S_1  
     e( 27 - 27) =    -12.57006  eV     1   --> B_1  D_3  S_3  
     e( 28 - 28) =    -12.56816  eV     1   --> B_2  D_4  S_4  
     e( 29 - 29) =    -12.56684  eV     1   --> B_1  D_3  S_3  
     e( 30 - 30) =    -12.56288  eV     1   --> B_2  D_4  S_4  
     e( 31 - 31) =    -12.54182  eV     1   --> B_2  D_4  S_4  
     e( 32 - 32) =    -12.53768  eV     1   --> B_2  D_4  S_4  
     e( 33 - 33) =    -12.53190  eV     1   --> A_2  D_2  S_2  
     e( 34 - 34) =    -12.52925  eV     1   --> A_1  D_1  S_1  
     e( 35 - 35) =    -12.51984  eV     1   --> B_1  D_3  S_3  
     e( 36 - 36) =    -12.51758  eV     1   --> B_2  D_4  S_4  
     e( 37 - 37) =    -12.51391  eV     1   --> A_1  D_1  S_1  
     e( 38 - 38) =    -12.51374  eV     1   --> A_2  D_2  S_2  
     e( 39 - 39) =    -12.51230  eV     1   --> B_1  D_3  S_3  
     e( 40 - 40) =    -12.49594  eV     1   --> A_2  D_2  S_2  
     e( 41 - 41) =     -9.75561  eV     1   --> A_1  D_1  S_1  
     e( 42 - 42) =     -9.28825  eV     1   --> B_2  D_4  S_4  
     e( 43 - 43) =     -9.25189  eV     1   --> A_2  D_2  S_2  
     e( 44 - 44) =     -8.89261  eV     1   --> B_1  D_3  S_3  
     e( 45 - 45) =     -8.31981  eV     1   --> B_2  D_4  S_4  
     e( 46 - 46) =     -8.27739  eV     1   --> B_1  D_3  S_3  
     e( 47 - 47) =     -7.92020  eV     1   --> A_2  D_2  S_2  
     e( 48 - 48) =     -7.83984  eV     1   --> A_1  D_1  S_1  
     e( 49 - 49) =     -7.83709  eV     1   --> B_2  D_4  S_4  
     e( 50 - 50) =     -7.81023  eV     1   --> B_1  D_3  S_3  
     e( 51 - 51) =     -7.78155  eV     1   --> A_2  D_2  S_2  
     e( 52 - 52) =     -7.61448  eV     1   --> A_1  D_1  S_1  
     e( 53 - 53) =     -7.49715  eV     1   --> B_1  D_3  S_3  
     e( 54 - 54) =     -7.48463  eV     1   --> A_1  D_1  S_1  
     e( 55 - 55) =     -7.43167  eV     1   --> B_2  D_4  S_4  
     e( 56 - 56) =     -7.42813  eV     1   --> A_2  D_2  S_2  
     e( 57 - 57) =     -1.38957  eV     1   --> B_2  D_4  S_4  
     e( 58 - 58) =     -0.77652  eV     1   --> A_1  D_1  S_1  
     e( 59 - 59) =     -0.74567  eV     1   --> B_1  D_3  S_3  
     e( 60 - 60) =     -0.54423  eV     1   --> A_2  D_2  S_2  
     e( 61 - 61) =      0.10287  eV     1   --> B_1  D_3  S_3  
     e( 62 - 62) =      0.71993  eV     1   --> A_1  D_1  S_1  
     e( 63 - 63) =      0.83433  eV     1   --> A_2  D_2  S_2  
     e( 64 - 64) =      0.86046  eV     1   --> B_2  D_4  S_4  
     e( 65 - 65) =      3.35588  eV     1   --> B_1  D_3  S_3  
     e( 66 - 66) =      3.79035  eV     1   --> A_1  D_1  S_1  
     e( 67 - 67) =      4.13973  eV     1   --> A_2  D_2  S_2  
     e( 68 - 68) =      4.18983  eV     1   --> B_2  D_4  S_4  
     e( 69 - 69) =      4.23717  eV     1   --> A_2  D_2  S_2  
     e( 70 - 70) =      4.55339  eV     1   --> A_1  D_1  S_1  
     e( 71 - 71) =      4.62758  eV     1   --> B_2  D_4  S_4  
     e( 72 - 72) =      4.65568  eV     1   --> A_1  D_1  S_1  
     e( 73 - 73) =      4.68664  eV     1   --> A_2  D_2  S_2  
     e( 74 - 74) =      4.76089  eV     1   --> B_2  D_4  S_4  
     e( 75 - 75) =      4.80731  eV     1   --> B_2  D_4  S_4  
     e( 76 - 76) =      4.94706  eV     1   --> B_1  D_3  S_3  
     e( 77 - 77) =      4.95615  eV     1   --> A_2  D_2  S_2  
     e( 78 - 78) =      5.06538  eV     1   --> A_1  D_1  S_1  
     e( 79 - 79) =      5.09106  eV     1   --> B_1  D_3  S_3  
     e( 80 - 80) =      5.14750  eV     1   --> B_1  D_3  S_3  
     e( 81 - 81) =      5.48448  eV     1   --> A_2  D_2  S_2  
     e( 82 - 82) =      5.56339  eV     1   --> B_1  D_3  S_3  
     e( 83 - 83) =      5.61529  eV     1   --> A_1  D_1  S_1  
     e( 84 - 84) =      5.85332  eV     1   --> B_2  D_4  S_4  
     e( 85 - 85) =      5.96995  eV     1   --> A_2  D_2  S_2  
     e( 86 - 86) =      6.02046  eV     1   --> B_1  D_3  S_3  
     e( 87 - 87) =      6.12525  eV     1   --> A_1  D_1  S_1  
     e( 88 - 88) =      6.20546  eV     1   --> B_2  D_4  S_4  
     e( 89 - 89) =      6.25332  eV     1   --> A_1  D_1  S_1  
     e( 90 - 90) =      6.46188  eV     1   --> B_1  D_3  S_3  
     e( 91 - 91) =      6.58561  eV     1   --> A_2  D_2  S_2  
     e( 92 - 92) =      6.62384  eV     1   --> A_1  D_1  S_1  
     e( 93 - 93) =      6.62702  eV     1   --> B_2  D_4  S_4  
     e( 94 - 94) =      6.81670  eV     1   --> B_2  D_4  S_4  
     e( 95 - 95) =      6.90972  eV     1   --> A_2  D_2  S_2  
     e( 96 - 96) =      6.91558  eV     1   --> B_2  D_4  S_4  
     e( 97 - 97) =      6.98238  eV     1   --> A_2  D_2  S_2  
     e( 98 - 98) =      6.98921  eV     1   --> B_1  D_3  S_3  
[...]
     e( 16 - 16) =    -12.61694  eV     1   --> B_2  D_4  S_4  
     e( 17 - 17) =    -12.61657  eV     1   --> B_1  D_3  S_3  
     e( 18 - 18) =    -12.61389  eV     1   --> A_2  D_2  S_2  
     e( 19 - 19) =    -12.61177  eV     1   --> B_2  D_4  S_4  
     e( 20 - 20) =    -12.60525  eV     1   --> A_1  D_1  S_1  
     e( 21 - 21) =    -12.58560  eV     1   --> A_2  D_2  S_2  
     e( 22 - 22) =    -12.58312  eV     1   --> B_1  D_3  S_3  
     e( 23 - 23) =    -12.57580  eV     1   --> A_1  D_1  S_1  
     e( 24 - 24) =    -12.57530  eV     1   --> B_2  D_4  S_4  
     e( 25 - 25) =    -12.57030  eV     1   --> A_2  D_2  S_2  
     e( 26 - 26) =    -12.57007  eV     1   --> B_1  D_3  S_3  
     e( 27 - 27) =    -12.55919  eV     1   --> B_1  D_3  S_3  
     e( 28 - 28) =    -12.55749  eV     1   --> A_1  D_1  S_1  
     e( 29 - 29) =    -12.55619  eV     1   --> B_2  D_4  S_4  
     e( 30 - 30) =    -12.55486  eV     1   --> A_1  D_1  S_1  
     e( 31 - 31) =    -12.55288  eV     1   --> B_2  D_4  S_4  
     e( 32 - 32) =    -12.55175  eV     1   --> A_2  D_2  S_2  
     e( 33 - 33) =    -12.53257  eV     1   --> B_2  D_4  S_4  
     e( 34 - 34) =    -12.53073  eV     1   --> A_1  D_1  S_1  
     e( 35 - 35) =    -12.52837  eV     1   --> A_2  D_2  S_2  
     e( 36 - 36) =    -12.52618  eV     1   --> B_1  D_3  S_3  
     e( 37 - 37) =    -12.52495  eV     1   --> B_1  D_3  S_3  
     e( 38 - 38) =    -12.52368  eV     1   --> A_2  D_2  S_2  
     e( 39 - 39) =    -12.51920  eV     1   --> A_1  D_1  S_1  
     e( 40 - 40) =    -12.51904  eV     1   --> B_2  D_4  S_4  
     e( 41 - 41) =     -9.58922  eV     1   --> A_1  D_1  S_1  
     e( 42 - 42) =     -9.53990  eV     1   --> B_2  D_4  S_4  
     e( 43 - 43) =     -9.11704  eV     1   --> A_2  D_2  S_2  
     e( 44 - 44) =     -9.07812  eV     1   --> B_1  D_3  S_3  
     e( 45 - 45) =     -8.16164  eV     1   --> B_1  D_3  S_3  
     e( 46 - 46) =     -8.12721  eV     1   --> A_2  D_2  S_2  
     e( 47 - 47) =     -8.05731  eV     1   --> B_2  D_4  S_4  
     e( 48 - 48) =     -8.00658  eV     1   --> A_1  D_1  S_1  
     e( 49 - 49) =     -7.75563  eV     1   --> B_2  D_4  S_4  
     e( 50 - 50) =     -7.73229  eV     1   --> A_1  D_1  S_1  
     e( 51 - 51) =     -7.64567  eV     1   --> B_1  D_3  S_3  
     e( 52 - 52) =     -7.63867  eV     1   --> A_2  D_2  S_2  
     e( 53 - 53) =     -7.54750  eV     1   --> B_1  D_3  S_3  
     e( 54 - 54) =     -7.53905  eV     1   --> A_2  D_2  S_2  
     e( 55 - 55) =     -7.44537  eV     1   --> A_1  D_1  S_1  
     e( 56 - 56) =     -7.44115  eV     1   --> B_2  D_4  S_4  
     e( 57 - 57) =     -1.14912  eV     1   --> B_2  D_4  S_4  
     e( 58 - 58) =     -1.08187  eV     1   --> A_1  D_1  S_1  
     e( 59 - 59) =     -0.67758  eV     1   --> B_1  D_3  S_3  
     e( 60 - 60) =     -0.65450  eV     1   --> A_2  D_2  S_2  
     e( 61 - 61) =      0.41707  eV     1   --> B_1  D_3  S_3  
     e( 62 - 62) =      0.49733  eV     1   --> A_2  D_2  S_2  
     e( 63 - 63) =      0.79330  eV     1   --> A_1  D_1  S_1  
     e( 64 - 64) =      0.80999  eV     1   --> B_2  D_4  S_4  
     e( 65 - 65) =      3.65388  eV     1   --> B_1  D_3  S_3  
     e( 66 - 66) =      3.73825  eV     1   --> A_2  D_2  S_2  
     e( 67 - 67) =      4.18721  eV     1   --> A_1  D_1  S_1  
     e( 68 - 68) =      4.19202  eV     1   --> B_2  D_4  S_4  
     e( 69 - 69) =      4.32357  eV     1   --> A_1  D_1  S_1  
     e( 70 - 70) =      4.39137  eV     1   --> B_2  D_4  S_4  
     e( 71 - 71) =      4.59820  eV     1   --> A_2  D_2  S_2  
     e( 72 - 72) =      4.64139  eV     1   --> A_2  D_2  S_2  
     e( 73 - 73) =      4.67444  eV     1   --> B_1  D_3  S_3  
     e( 74 - 74) =      4.69115  eV     1   --> B_1  D_3  S_3  
     e( 75 - 75) =      4.70630  eV     1   --> A_1  D_1  S_1  
     e( 76 - 76) =      4.74124  eV     1   --> B_2  D_4  S_4  
     e( 77 - 77) =      5.00520  eV     1   --> B_2  D_4  S_4  
     e( 78 - 78) =      5.08584  eV     1   --> A_1  D_1  S_1  
     e( 79 - 79) =      5.22606  eV     1   --> B_1  D_3  S_3  
     e( 80 - 80) =      5.24260  eV     1   --> A_2  D_2  S_2  
     e( 81 - 81) =      5.62920  eV     1   --> B_2  D_4  S_4  
     e( 82 - 82) =      5.63226  eV     1   --> A_1  D_1  S_1  
     e( 83 - 83) =      5.72741  eV     1   --> B_1  D_3  S_3  
     e( 84 - 84) =      5.77994  eV     1   --> A_2  D_2  S_2  
     e( 85 - 85) =      5.84008  eV     1   --> A_1  D_1  S_1  
     e( 86 - 86) =      5.85734  eV     1   --> B_2  D_4  S_4  
     e( 87 - 87) =      5.94466  eV     1   --> A_2  D_2  S_2  
     e( 88 - 88) =      6.07167  eV     1   --> B_1  D_3  S_3  
     e( 89 - 89) =      6.47678  eV     1   --> A_2  D_2  S_2  
     e( 90 - 90) =      6.48946  eV     1   --> B_1  D_3  S_3  
     e( 91 - 91) =      6.60081  eV     1   --> A_1  D_1  S_1  
     e( 92 - 92) =      6.68844  eV     1   --> B_1  D_3  S_3  
     e( 93 - 93) =      6.71513  eV     1   --> A_2  D_2  S_2  
     e( 94 - 94) =      6.72421  eV     1   --> B_2  D_4  S_4  
     e( 95 - 95) =      6.78407  eV     1   --> A_1  D_1  S_1  
     e( 96 - 96) =      6.79276  eV     1   --> B_2  D_4  S_4  
     e( 97 - 97) =      6.96927  eV     1   --> B_2  D_4  S_4  
     e( 98 - 98) =      6.97464  eV     1   --> A_1  D_1  S_1  
     e( 99 - 99) =      7.04127  eV     1   --> A_2  D_2  S_2  
     e(100 -100) =      7.06105  eV     1   --> B_1  D_3  S_3  
     e(101 -101) =      7.14746  eV     1   --> B_2  D_4  S_4  
     e(102 -102) =      7.20220  eV     1   --> A_1  D_1  S_1  
     e(103 -103) =      7.35731  eV     1   --> A_2  D_2  S_2  
     e(104 -104) =      7.37975  eV     1   --> A_1  D_1  S_1  
     e(105 -105) =      7.38120  eV     1   --> B_1  D_3  S_3  
     e(106 -106) =      7.40627  eV     1   --> B_2  D_4  S_4  
     e(107 -107) =      7.64348  eV     1   --> A_2  D_2  S_2  
     e(108 -108) =      7.65211  eV     1   --> B_1  D_3  S_3  
     e(109 -109) =      7.69005  eV     1   --> A_1  D_1  S_1  
     e(110 -110) =      7.69636  eV     1   --> B_2  D_4  S_4  
     e(111 -111) =      7.89027  eV     1   --> A_1  D_1  S_1  
     e(112 -112) =      7.93973  eV     1   --> B_2  D_4  S_4  
     e(113 -113) =      8.02984  eV     1   --> A_2  D_2  S_2  
     e(114 -114) =      8.04709  eV     1   --> B_1  D_3  S_3  
     e(115 -115) =      8.13618  eV     1   --> B_2  D_4  S_4  
     e(116 -116) =      8.18966  eV     1   --> A_1  D_1  S_1  
     e(117 -117) =      8.39650  eV     1   --> A_2  D_2  S_2  
     e(118 -118) =      8.46341  eV     1   --> B_1  D_3  S_3  
     e(119 -119) =      8.54614  eV     1   --> A_1  D_1  S_1  
     e(120 -120) =      8.56406  eV     1   --> A_2  D_2  S_2  
     e(121 -121) =      8.59037  eV     1   --> B_2  D_4  S_4  
     e(122 -122) =      8.64102  eV     1   --> B_1  D_3  S_3  
     e(123 -123) =      8.76411  eV     1   --> A_2  D_2  S_2  
     e(124 -124) =      8.77582  eV     1   --> B_1  D_3  S_3  
     e(125 -125) =      8.91911  eV     1   --> A_2  D_2  S_2  
     e(126 -126) =      8.92456  eV     1   --> B_1  D_3  S_3  
     e(127 -127) =      9.08394  eV     1   --> A_1  D_1  S_1  
     e(128 -128) =      9.08557  eV     1   --> B_2  D_4  S_4  
     e(129 -129) =     10.35706  eV     1   --> B_1  D_3  S_3  
     e(130 -130) =     10.42931  eV     1   --> A_2  D_2  S_2  
     e(131 -131) =     10.51833  eV     1   --> A_1  D_1  S_1  
     e(132 -132) =     10.53131  eV     1   --> B_2  D_4  S_4  
     e(133 -133) =     12.45853  eV     1   --> B_1  D_3  S_3  
     e(134 -134) =     12.48235  eV     1   --> B_2  D_4  S_4  
     e(135 -135) =     12.49363  eV     1   --> A_1  D_1  S_1  
     e(136 -136) =     12.58549  eV     1   --> A_2  D_2  S_2  
     e(137 -137) =     13.10381  eV     1   --> B_2  D_4  S_4  
     e(138 -138) =     13.16685  eV     1   --> A_1  D_1  S_1  
     e(139 -139) =     13.41375  eV     1   --> B_1  D_3  S_3  
     e(140 -140) =     13.48648  eV     1   --> A_2  D_2  S_2  
     e(141 -141) =     13.89910  eV     1   --> A_2  D_2  S_2  
     e(142 -142) =     13.94843  eV     1   --> B_1  D_3  S_3  
     e(143 -143) =     14.28399  eV     1   --> B_2  D_4  S_4  
     e(144 -144) =     14.29110  eV     1   --> A_1  D_1  S_1  
     e(145 -145) =     14.64164  eV     1   --> B_1  D_3  S_3  
     e(146 -146) =     14.64954  eV     1   --> A_2  D_2  S_2  
     e(147 -147) =     14.85301  eV     1   --> B_1  D_3  S_3  
     e(148 -148) =     14.96286  eV     1   --> A_2  D_2  S_2  
     e(149 -149) =     15.26756  eV     1   --> B_2  D_4  S_4  
     e(150 -150) =     15.39344  eV     1   --> A_1  D_1  S_1  
     e(151 -151) =     15.55568  eV     1   --> A_1  D_1  S_1  
     e(152 -152) =     15.55857  eV     1   --> B_2  D_4  S_4  
     e(153 -153) =     15.72467  eV     1   --> B_2  D_4  S_4  
     e(154 -154) =     15.85249  eV     1   --> A_2  D_2  S_2  
     e(155 -155) =     15.85543  eV     1   --> A_1  D_1  S_1  
     e(156 -156) =     15.93360  eV     1   --> B_1  D_3  S_3  

 **************************************************************************

 **************************************************************************

                    xk=(   0.00000,   0.05703,   0.00000  )

     Band symmetry, C_2v (mm2)  point group:

     e(  1 -  1) =    -12.89963  eV     1   --> A_2  D_2  S_2  
     e(  2 -  2) =    -12.89851  eV     1   --> B_1  D_3  S_3  
     e(  3 -  3) =    -12.87520  eV     1   --> A_1  D_1  S_1  
     e(  4 -  4) =    -12.87423  eV     1   --> B_2  D_4  S_4  
     e(  5 -  5) =    -12.85643  eV     1   --> A_1  D_1  S_1  
     e(  6 -  6) =    -12.85565  eV     1   --> A_2  D_2  S_2  
     e(  7 -  7) =    -12.85487  eV     1   --> B_1  D_3  S_3  
     e(  8 -  8) =    -12.85417  eV     1   --> B_2  D_4  S_4  
     e(  9 -  9) =    -12.82069  eV     1   --> A_2  D_2  S_2  
     e( 10 - 10) =    -12.82008  eV     1   --> B_1  D_3  S_3  
     e( 11 - 11) =    -12.77739  eV     1   --> A_1  D_1  S_1  
     e( 12 - 12) =    -12.77709  eV     1   --> B_2  D_4  S_4  
     e( 13 - 14) =    -12.63937  eV     2   --> A_2  D_2  S_2  
     e( 13 - 14) =    -12.63937  eV     2   --> B_1  D_3  S_3  
     e( 15 - 15) =    -12.61748  eV     1   --> B_2  D_4  S_4  
     e( 16 - 17) =    -12.61713  eV     2   --> A_1  D_1  S_1  
     e( 16 - 17) =    -12.61713  eV     2   --> B_1  D_3  S_3  
     e( 18 - 18) =    -12.61272  eV     1   --> A_2  D_2  S_2  
     e( 19 - 19) =    -12.60696  eV     1   --> A_1  D_1  S_1  
     e( 20 - 20) =    -12.60654  eV     1   --> B_2  D_4  S_4  
     e( 21 - 21) =    -12.58653  eV     1   --> A_2  D_2  S_2  
     e( 22 - 22) =    -12.58289  eV     1   --> B_1  D_3  S_3  
     e( 23 - 23) =    -12.57520  eV     1   --> A_1  D_1  S_1  
     e( 24 - 24) =    -12.57465  eV     1   --> B_2  D_4  S_4  
     e( 25 - 25) =    -12.57027  eV     1   --> A_2  D_2  S_2  
     e( 26 - 26) =    -12.56702  eV     1   --> B_1  D_3  S_3  
     e( 27 - 28) =    -12.55500  eV     2   --> A_1  D_1  S_1  
     e( 27 - 28) =    -12.55500  eV     2   --> B_2  D_4  S_4  
     e( 29 - 29) =    -12.55370  eV     1   --> B_1  D_3  S_3  
     e( 30 - 30) =    -12.55280  eV     1   --> A_2  D_2  S_2  
     e( 31 - 32) =    -12.55115  eV     2   --> A_1  D_1  S_1  
     e( 31 - 32) =    -12.55115  eV     2   --> B_2  D_4  S_4  
     e( 33 - 33) =    -12.53016  eV     1   --> A_1  D_1  S_1  
     e( 34 - 34) =    -12.52957  eV     1   --> B_2  D_4  S_4  
     e( 35 - 35) =    -12.52826  eV     1   --> B_1  D_3  S_3  
     e( 36 - 36) =    -12.52806  eV     1   --> A_2  D_2  S_2  
     e( 37 - 37) =    -12.52414  eV     1   --> B_1  D_3  S_3  
     e( 38 - 38) =    -12.52113  eV     1   --> A_2  D_2  S_2  
     e( 39 - 39) =    -12.51375  eV     1   --> A_1  D_1  S_1  
     e( 40 - 40) =    -12.51058  eV     1   --> B_2  D_4  S_4  
     e( 41 - 41) =     -9.57722  eV     1   --> A_1  D_1  S_1  
     e( 42 - 42) =     -9.55257  eV     1   --> B_2  D_4  S_4  
     e( 43 - 43) =     -9.10756  eV     1   --> A_2  D_2  S_2  
     e( 44 - 44) =     -9.08811  eV     1   --> B_1  D_3  S_3  
     e( 45 - 45) =     -8.15342  eV     1   --> B_1  D_3  S_3  
     e( 46 - 46) =     -8.13612  eV     1   --> A_2  D_2  S_2  
     e( 47 - 47) =     -8.04424  eV     1   --> B_2  D_4  S_4  
     e( 48 - 48) =     -8.01875  eV     1   --> A_1  D_1  S_1  
     e( 49 - 49) =     -7.75016  eV     1   --> B_2  D_4  S_4  
     e( 50 - 50) =     -7.73837  eV     1   --> A_1  D_1  S_1  
     e( 51 - 51) =     -7.64129  eV     1   --> B_1  D_3  S_3  
     e( 52 - 52) =     -7.63778  eV     1   --> A_2  D_2  S_2  
     e( 53 - 53) =     -7.54710  eV     1   --> B_1  D_3  S_3  
     e( 54 - 54) =     -7.54308  eV     1   --> A_2  D_2  S_2  
     e( 55 - 55) =     -7.44408  eV     1   --> A_1  D_1  S_1  
     e( 56 - 56) =     -7.44189  eV     1   --> B_2  D_4  S_4  
     e( 57 - 57) =     -1.13266  eV     1   --> B_2  D_4  S_4  
     e( 58 - 58) =     -1.09883  eV     1   --> A_1  D_1  S_1  
     e( 59 - 59) =     -0.67199  eV     1   --> B_1  D_3  S_3  
     e( 60 - 60) =     -0.66052  eV     1   --> A_2  D_2  S_2  
     e( 61 - 61) =      0.43711  eV     1   --> B_1  D_3  S_3  
     e( 62 - 62) =      0.47716  eV     1   --> A_2  D_2  S_2  
     e( 63 - 63) =      0.79814  eV     1   --> A_1  D_1  S_1  
     e( 64 - 64) =      0.80621  eV     1   --> B_2  D_4  S_4  
     e( 65 - 65) =      3.67501  eV     1   --> B_1  D_3  S_3  
     e( 66 - 66) =      3.71683  eV     1   --> A_2  D_2  S_2  
     e( 67 - 67) =      4.19401  eV     1   --> A_1  D_1  S_1  
     e( 68 - 68) =      4.19543  eV     1   --> B_2  D_4  S_4  
     e( 69 - 69) =      4.33580  eV     1   --> A_1  D_1  S_1  
     e( 70 - 70) =      4.37121  eV     1   --> B_2  D_4  S_4  
     e( 71 - 71) =      4.62021  eV     1   --> A_2  D_2  S_2  
     e( 72 - 72) =      4.64820  eV     1   --> A_2  D_2  S_2  
     e( 73 - 73) =      4.66370  eV     1   --> B_1  D_3  S_3  
     e( 74 - 74) =      4.66903  eV     1   --> B_1  D_3  S_3  
     e( 75 - 75) =      4.71785  eV     1   --> A_1  D_1  S_1  
     e( 76 - 76) =      4.73453  eV     1   --> B_2  D_4  S_4  
     e( 77 - 77) =      5.02640  eV     1   --> B_2  D_4  S_4  
     e( 78 - 78) =      5.06696  eV     1   --> A_1  D_1  S_1  
     e( 79 - 79) =      5.23356  eV     1   --> B_1  D_3  S_3  
     e( 80 - 80) =      5.24051  eV     1   --> A_2  D_2  S_2  
     e( 81 - 81) =      5.63325  eV     1   --> B_2  D_4  S_4  
     e( 82 - 82) =      5.63452  eV     1   --> A_1  D_1  S_1  
     e( 83 - 83) =      5.74186  eV     1   --> B_1  D_3  S_3  
     e( 84 - 84) =      5.76803  eV     1   --> A_2  D_2  S_2  
     e( 85 - 85) =      5.83979  eV     1   --> A_1  D_1  S_1  
     e( 86 - 86) =      5.84959  eV     1   --> B_2  D_4  S_4  
     e( 87 - 87) =      5.97742  eV     1   --> A_2  D_2  S_2  
     e( 88 - 88) =      6.04082  eV     1   --> B_1  D_3  S_3  
     e( 89 - 89) =      6.48065  eV     1   --> A_2  D_2  S_2  
     e( 90 - 90) =      6.48748  eV     1   --> B_1  D_3  S_3  
     e( 91 - 91) =      6.63770  eV     1   --> A_1  D_1  S_1  
     e( 92 - 92) =      6.69362  eV     1   --> B_1  D_3  S_3  
     e( 93 - 93) =      6.69989  eV     1   --> B_2  D_4  S_4  
     e( 94 - 94) =      6.70695  eV     1   --> A_2  D_2  S_2  
     e( 95 - 95) =      6.78403  eV     1   --> A_1  D_1  S_1  
     e( 96 - 96) =      6.78552  eV     1   --> B_2  D_4  S_4  
     e( 97 - 97) =      6.97000  eV     1   --> B_2  D_4  S_4  
     e( 98 - 98) =      6.97308  eV     1   --> A_1  D_1  S_1  
     e( 99 - 99) =      7.04458  eV     1   --> A_2  D_2  S_2  
     e(100 -100) =      7.05433  eV     1   --> B_1  D_3  S_3  
     e(101 -101) =      7.16040  eV     1   --> B_2  D_4  S_4  
     e(102 -102) =      7.18880  eV     1   --> A_1  D_1  S_1  
     e(103 -103) =      7.36111  eV     1   --> A_2  D_2  S_2  
     e(104 -104) =      7.37449  eV     1   --> B_1  D_3  S_3  
     e(105 -105) =      7.38940  eV     1   --> A_1  D_1  S_1  
     e(106 -106) =      7.40242  eV     1   --> B_2  D_4  S_4  
     e(107 -107) =      7.64599  eV     1   --> A_2  D_2  S_2  
     e(108 -108) =      7.65118  eV     1   --> B_1  D_3  S_3  
     e(109 -109) =      7.69197  eV     1   --> A_1  D_1  S_1  
     e(110 -110) =      7.69479  eV     1   --> B_2  D_4  S_4  
     e(111 -111) =      7.90423  eV     1   --> A_1  D_1  S_1  
     e(112 -112) =      7.92883  eV     1   --> B_2  D_4  S_4  
     e(113 -113) =      8.03493  eV     1   --> A_2  D_2  S_2  
     e(114 -114) =      8.04395  eV     1   --> B_1  D_3  S_3  
     e(115 -115) =      8.14657  eV     1   --> B_2  D_4  S_4  
     e(116 -116) =      8.17462  eV     1   --> A_1  D_1  S_1  
     e(117 -117) =      8.41548  eV     1   --> A_2  D_2  S_2  
     e(118 -118) =      8.44951  eV     1   --> B_1  D_3  S_3  
     e(119 -119) =      8.55613  eV     1   --> A_1  D_1  S_1  
     e(120 -120) =      8.57769  eV     1   --> B_2  D_4  S_4  
     e(121 -121) =      8.58208  eV     1   --> A_2  D_2  S_2  
     e(122 -122) =      8.62013  eV     1   --> B_1  D_3  S_3  
     e(123 -123) =      8.76514  eV     1   --> A_2  D_2  S_2  
     e(124 -124) =      8.77093  eV     1   --> B_1  D_3  S_3  
     e(125 -125) =      8.92060  eV     1   --> A_2  D_2  S_2  
     e(126 -126) =      8.92412  eV     1   --> B_1  D_3  S_3  
     e(127 -127) =      9.08353  eV     1   --> A_1  D_1  S_1  
     e(128 -128) =      9.08498  eV     1   --> B_2  D_4  S_4  
     e(129 -129) =     10.37847  eV     1   --> B_1  D_3  S_3  
     e(130 -130) =     10.41286  eV     1   --> A_2  D_2  S_2  
     e(131 -131) =     10.52389  eV     1   --> A_1  D_1  S_1  
     e(132 -132) =     10.53038  eV     1   --> B_2  D_4  S_4  
     e(133 -133) =     12.48572  eV     1   --> B_2  D_4  S_4  
     e(134 -134) =     12.49117  eV     1   --> A_1  D_1  S_1  
     e(135 -135) =     12.49279  eV     1   --> B_1  D_3  S_3  
     e(136 -136) =     12.55575  eV     1   --> A_2  D_2  S_2  
     e(137 -137) =     13.11971  eV     1   --> B_2  D_4  S_4  
     e(138 -138) =     13.15218  eV     1   --> A_1  D_1  S_1  
     e(139 -139) =     13.42965  eV     1   --> B_1  D_3  S_3  
     e(140 -140) =     13.46601  eV     1   --> A_2  D_2  S_2  
     e(141 -141) =     13.90806  eV     1   --> A_2  D_2  S_2  
     e(142 -142) =     13.93331  eV     1   --> B_1  D_3  S_3  
     e(143 -143) =     14.28524  eV     1   --> B_2  D_4  S_4  
     e(144 -144) =     14.28902  eV     1   --> A_1  D_1  S_1  
     e(145 -145) =     14.64311  eV     1   --> B_1  D_3  S_3  
     e(146 -146) =     14.64715  eV     1   --> A_2  D_2  S_2  
     e(147 -147) =     14.88002  eV     1   --> B_1  D_3  S_3  
     e(148 -148) =     14.93371  eV     1   --> A_2  D_2  S_2  
     e(149 -149) =     15.30145  eV     1   --> B_2  D_4  S_4  
     e(150 -150) =     15.36772  eV     1   --> A_1  D_1  S_1  
     e(151 -151) =     15.55643  eV     1   --> A_1  D_1  S_1  
     e(152 -152) =     15.55868  eV     1   --> B_2  D_4  S_4  
     e(153 -153) =     15.75668  eV     1   --> B_2  D_4  S_4  
     e(154 -154) =     15.82173  eV     1   --> A_1  D_1  S_1  
     e(155 -155) =     15.87457  eV     1   --> A_2  D_2  S_2  
     e(156 -156) =     15.91556  eV     1   --> B_1  D_3  S_3  

 **************************************************************************

 **************************************************************************

                    xk=(   0.00000,   0.05900,   0.00000  )

     zone border point and non-symmorphic group 
     symmetry decomposition not available

 **************************************************************************
 
     BANDS        :     38.43s CPU     44.97s WALL

 
   This run was terminated on:  12:10:56  12May2022            

=------------------------------------------------------------------------------=
   JOB DONE.
=------------------------------------------------------------------------------=
