
     Program PWSCF v.5.3.0 starts on 28Apr2022 at 12:52:26 

     This program is part of the open-source Quantum ESPRESSO suite
     for quantum simulation of materials; please cite
         "P. Giannozzi et al., J. Phys.:Condens. Matter 21 395502 (2009);
          URL http://www.quantum-espresso.org", 
     in publications or presentations arising from this work. More details at
     http://www.quantum-espresso.org/quote

     Parallel version (MPI), running on     1 processors
     Waiting for input...
     Reading input from standard input

     Current dimensions of program PWSCF are:
     Max number of different atomic species (ntypx) = 10
     Max number of k-points (npk) =  40000
     Max angular momentum in pseudopotentials (lmaxx) =  3

     Subspace diagonalization in iterative solution of the eigenvalue problem:
     a serial algorithm will be used

 
     G-vector sticks info
     --------------------
     sticks:   dense  smooth     PW     G-vecs:    dense   smooth      PW
     Sum         649     649    199                10969    10969    1837
 


     bravais-lattice index     =            0
     lattice parameter (alat)  =      11.9223  a.u.
     unit-cell volume          =     423.6607 (a.u.)^3
     number of atoms/cell      =            2
     number of atomic types    =            2
     number of electrons       =        30.00
     number of Kohn-Sham states=           38
     kinetic-energy cutoff     =      33.0900  Ry
     charge density cutoff     =     132.3600  Ry
     convergence threshold     =      1.0E-08
     mixing beta               =       0.3000
     number of iterations used =            8  plain     mixing
     Exchange-correlation      = PBE ( 1  4  3  4 0 0)
     Non magnetic calculation with spin-orbit


     celldm(1)=  11.922282  celldm(2)=   0.000000  celldm(3)=   0.000000
     celldm(4)=   0.000000  celldm(5)=   0.000000  celldm(6)=   0.000000

     crystal axes: (cart. coord. in units of alat)
               a(1) = (   0.000000   0.500000   0.500000 )  
               a(2) = (   0.500000   0.000000   0.500000 )  
               a(3) = (   0.500000   0.500000   0.000000 )  

     reciprocal axes: (cart. coord. in units 2 pi/alat)
               b(1) = ( -1.000000  1.000000  1.000000 )  
               b(2) = (  1.000000 -1.000000  1.000000 )  
               b(3) = (  1.000000  1.000000 -1.000000 )  


     PseudoPot. # 1 for Sn read from file:
     /scratch/irmik/jobs/571380/pseudo/Sn.upf
     MD5 check sum: 789b5e66fce167ac30fcdcb6618e706a
     Pseudo is Norm-conserving + core correction, Zval = 14.0
     Generated using ONCVPSP code by D. R. Hamann
     Using radial grid of 1668 points, 10 beta functions with: 
                l(1) =   0
                l(2) =   0
                l(3) =   1
                l(4) =   1
                l(5) =   1
                l(6) =   1
                l(7) =   2
                l(8) =   2
                l(9) =   2
               l(10) =   2

     PseudoPot. # 2 for Te read from file:
     /scratch/irmik/jobs/571380/pseudo/Te.upf
     MD5 check sum: d198e370297ac1d7edee156d0fe975c4
     Pseudo is Norm-conserving + core correction, Zval = 16.0
     Generated using ONCVPSP code by D. R. Hamann
     Using radial grid of 1324 points, 10 beta functions with: 
                l(1) =   0
                l(2) =   0
                l(3) =   1
                l(4) =   1
                l(5) =   1
                l(6) =   1
                l(7) =   2
                l(8) =   2
                l(9) =   2
               l(10) =   2

     atomic species   valence    mass     pseudopotential
        Sn            14.00   118.00000     Sn( 1.00)
        Te            16.00   128.00000     Te( 1.00)

     48 Sym. Ops., with inversion, found



   Cartesian axes

     site n.     atom                  positions (alat units)
         1           Sn  tau(   1) = (   0.0000000   0.0000000   0.0000000  )
         2           Te  tau(   2) = (   0.5000000   0.5000000   0.5000000  )

     number of k points=    10  Marzari-Vanderbilt smearing, width (Ry)=  0.0001
                       cart. coord. in units 2pi/alat
        k(    1) = (   0.0000000   0.0000000   0.0000000), wk =   0.0080000
        k(    2) = (   0.2000000   0.2000000  -0.2000000), wk =   0.0640000
        k(    3) = (   0.4000000   0.4000000  -0.4000000), wk =   0.0640000
        k(    4) = (   0.4000000   0.0000000   0.0000000), wk =   0.0480000
        k(    5) = (   0.6000000   0.2000000  -0.2000000), wk =   0.1920000
        k(    6) = (  -0.2000000  -0.6000000   0.6000000), wk =   0.1920000
        k(    7) = (   0.0000000  -0.4000000   0.4000000), wk =   0.0960000
        k(    8) = (   0.8000000   0.0000000   0.0000000), wk =   0.0480000
        k(    9) = (   0.0000000  -0.8000000   0.8000000), wk =   0.0960000
        k(   10) = (  -0.2000000  -0.6000000   1.0000000), wk =   0.1920000

     Dense  grid:    10969 G-vectors     FFT dimensions: (  32,  32,  32)

     Largest allocated arrays     est. size (Mb)     dimensions
        Kohn-Sham Wavefunctions         1.59 Mb     (    2738,   38)
        NL pseudopotentials             1.42 Mb     (    1369,   68)
        Each V/rho on FFT grid          0.50 Mb     (   32768)
        Each G-vector array             0.08 Mb     (   10969)
        G-vector shells                 0.00 Mb     (     161)
     Largest temporary arrays     est. size (Mb)     dimensions
        Auxiliary wavefunctions         6.35 Mb     (    2738,  152)
        Each subspace H/S matrix        0.35 Mb     (     152,  152)
        Each <psi_i|beta_j> matrix      0.08 Mb     (      68,   2,   38)
        Arrays for rho mixing           4.00 Mb     (   32768,    8)

     Initial potential from superposition of free atoms
     Check: negative starting charge=   -0.001461

     starting charge   29.99821, renormalised to   30.00000

     negative rho (up, down):  1.461E-03 0.000E+00
     Starting wfc are   36 randomized atomic wfcs +    2 random wfc

     total cpu time spent up to now is        1.1 secs

     per-process dynamical memory:    82.2 Mb

     Self-consistent Calculation

     iteration #  1     ecut=    33.09 Ry     beta=0.30
     Davidson diagonalization with overlap
     ethr =  1.00E-02,  avg # of iterations =  6.2

     negative rho (up, down):  1.020E-03 0.000E+00

     total cpu time spent up to now is        4.3 secs

     total energy              =    -361.18632361 Ry
     Harris-Foulkes estimate   =    -361.56099129 Ry
     estimated scf accuracy    <       0.94770379 Ry

     iteration #  2     ecut=    33.09 Ry     beta=0.30
     Davidson diagonalization with overlap
     ethr =  3.16E-03,  avg # of iterations =  1.0

     negative rho (up, down):  2.974E-04 0.000E+00

     total cpu time spent up to now is        6.3 secs

     total energy              =    -360.99968811 Ry
     Harris-Foulkes estimate   =    -361.21694039 Ry
     estimated scf accuracy    <       0.33474483 Ry

     iteration #  3     ecut=    33.09 Ry     beta=0.30
     Davidson diagonalization with overlap
     ethr =  1.12E-03,  avg # of iterations =  2.0

     negative rho (up, down):  3.949E-05 0.000E+00

     total cpu time spent up to now is        8.8 secs

     total energy              =    -361.04049529 Ry
     Harris-Foulkes estimate   =    -361.04535784 Ry
     estimated scf accuracy    <       0.01401507 Ry

     iteration #  4     ecut=    33.09 Ry     beta=0.30
     Davidson diagonalization with overlap
     ethr =  4.67E-05,  avg # of iterations =  2.8

     total cpu time spent up to now is       11.1 secs

     total energy              =    -361.04165221 Ry
     Harris-Foulkes estimate   =    -361.04172355 Ry
     estimated scf accuracy    <       0.00052882 Ry

     iteration #  5     ecut=    33.09 Ry     beta=0.30
     Davidson diagonalization with overlap
     ethr =  1.76E-06,  avg # of iterations =  4.0

     total cpu time spent up to now is       13.9 secs

     total energy              =    -361.04169703 Ry
     Harris-Foulkes estimate   =    -361.04177458 Ry
     estimated scf accuracy    <       0.00013259 Ry

     iteration #  6     ecut=    33.09 Ry     beta=0.30
     Davidson diagonalization with overlap
     ethr =  4.42E-07,  avg # of iterations =  2.0

     total cpu time spent up to now is       16.4 secs

     total energy              =    -361.04171880 Ry
     Harris-Foulkes estimate   =    -361.04171652 Ry
     estimated scf accuracy    <       0.00002320 Ry

     iteration #  7     ecut=    33.09 Ry     beta=0.30
     Davidson diagonalization with overlap
     ethr =  7.73E-08,  avg # of iterations =  1.0

     total cpu time spent up to now is       18.4 secs

     total energy              =    -361.04171982 Ry
     Harris-Foulkes estimate   =    -361.04171981 Ry
     estimated scf accuracy    <       0.00000055 Ry

     iteration #  8     ecut=    33.09 Ry     beta=0.30
     Davidson diagonalization with overlap
     ethr =  1.83E-09,  avg # of iterations =  2.0

     total cpu time spent up to now is       20.7 secs

     total energy              =    -361.04171982 Ry
     Harris-Foulkes estimate   =    -361.04171988 Ry
     estimated scf accuracy    <       0.00000015 Ry

     iteration #  9     ecut=    33.09 Ry     beta=0.30
     Davidson diagonalization with overlap
     ethr =  5.04E-10,  avg # of iterations =  2.0

     total cpu time spent up to now is       23.1 secs

     total energy              =    -361.04171984 Ry
     Harris-Foulkes estimate   =    -361.04171985 Ry
     estimated scf accuracy    <       0.00000001 Ry

     iteration # 10     ecut=    33.09 Ry     beta=0.30
     Davidson diagonalization with overlap
     ethr =  3.46E-11,  avg # of iterations =  2.0

     total cpu time spent up to now is       27.2 secs

     End of self-consistent calculation

          k = 0.0000 0.0000 0.0000 (  1363 PWs)   bands (ev):

   -27.6654 -27.6654 -27.6654 -27.6654 -26.5232 -26.5232 -26.2217 -26.2217
   -26.2217 -26.2217 -12.6947 -12.6947 -12.6947 -12.6947 -11.8520 -11.8520
   -11.6680 -11.6680 -11.6680 -11.6680  -2.9476  -2.9476   4.9526   4.9526
     7.2578   7.2578   8.1257   8.1257   8.1257   8.1257  12.6773  12.6773
    13.5663  13.5663  13.5663  13.5663  15.1692  15.1692

          k = 0.2000 0.2000-0.2000 (  1369 PWs)   bands (ev):

   -27.8468 -27.8468 -27.5973 -27.5973 -26.6116 -26.6116 -26.3119 -26.3119
   -26.3043 -26.3043 -12.7963 -12.7963 -12.6499 -12.6499 -11.8949 -11.8949
   -11.7174 -11.7174 -11.7152 -11.7152  -2.6340  -2.6340   3.6326   3.6326
     7.5220   7.5220   8.1954   8.1954   8.7816   8.7816  11.5659  11.5659
    12.2148  12.2148  12.2516  12.2516  15.1518  15.1518

          k = 0.4000 0.4000-0.4000 (  1362 PWs)   bands (ev):

   -27.6422 -27.6422 -27.5204 -27.5204 -26.4090 -26.4090 -26.2444 -26.2444
   -26.1922 -26.1922 -12.6833 -12.6833 -12.6041 -12.6041 -11.7843 -11.7843
   -11.6779 -11.6779 -11.6438 -11.6438  -1.9255  -1.9255   1.9119   1.9119
     7.7992   7.7992   8.4221   8.4221   9.5761   9.5761  10.2739  10.2739
    10.6922  10.6922  10.8420  10.8420  16.8505  16.8505

          k = 0.4000 0.0000 0.0000 (  1351 PWs)   bands (ev):

   -27.5134 -27.5134 -27.4667 -27.4667 -26.2666 -26.2666 -26.2143 -26.2143
   -26.0912 -26.0912 -12.5916 -12.5916 -12.5708 -12.5708 -11.6810 -11.6810
   -11.6608 -11.6608 -11.5809 -11.5809  -2.5328  -2.5328   3.7225   3.7225
     6.8925   6.8925   7.4566   7.4566   8.8678   8.8678  11.0846  11.0846
    13.2845  13.2845  13.7039  13.7039  13.8852  13.8852

          k = 0.6000 0.2000-0.2000 (  1364 PWs)   bands (ev):

   -27.6218 -27.6218 -27.5883 -27.5883 -26.3558 -26.3558 -26.3345 -26.3345
   -26.2560 -26.2560 -12.6698 -12.6698 -12.6444 -12.6444 -11.7467 -11.7467
   -11.7341 -11.7341 -11.6818 -11.6818  -1.9495  -1.9495   2.5727   2.5727
     6.7014   6.7014   7.1224   7.1224   7.7508   7.7508  12.1800  12.1800
    12.6615  12.6615  13.1414  13.1414  14.2407  14.2407

          k =-0.2000-0.6000 0.6000 (  1360 PWs)   bands (ev):

   -27.5519 -27.5519 -27.5175 -27.5175 -26.2933 -26.2933 -26.2590 -26.2590
   -26.1865 -26.1865 -12.6285 -12.6285 -12.6046 -12.6046 -11.7136 -11.7136
   -11.6872 -11.6872 -11.6440 -11.6440  -1.6217  -1.6217   1.9248   1.9248
     6.0867   6.0867   7.5386   7.5386   8.4308   8.4308  11.2318  11.2318
    11.6632  11.6632  13.6223  13.6223  16.5647  16.5647

          k = 0.0000-0.4000 0.4000 (  1362 PWs)   bands (ev):

   -27.6659 -27.6659 -27.5439 -27.5439 -26.4013 -26.4013 -26.3255 -26.3255
   -26.2050 -26.2050 -12.6959 -12.6959 -12.6164 -12.6164 -11.7755 -11.7755
   -11.7244 -11.7244 -11.6560 -11.6560  -2.1754  -2.1754   2.7325   2.7325
     6.4326   6.4326   8.3248   8.3248   9.6155   9.6155  10.4112  10.4112
    10.8280  10.8280  13.7424  13.7424  15.5217  15.5217

          k = 0.8000 0.0000 0.0000 (  1359 PWs)   bands (ev):

   -27.5611 -27.5611 -27.5379 -27.5379 -26.3093 -26.3093 -26.2513 -26.2513
   -26.2320 -26.2320 -12.6226 -12.6226 -12.6162 -12.6162 -11.7154 -11.7154
   -11.6953 -11.6953 -11.6397 -11.6397  -1.6543  -1.6543   3.1631   3.1631
     5.2911   5.2911   6.1655   6.1655   6.6289   6.6289  12.6477  12.6477
    14.1668  14.1668  14.9052  14.9052  15.0561  15.0561

          k = 0.0000-0.8000 0.8000 (  1348 PWs)   bands (ev):

   -27.4195 -27.4195 -27.3618 -27.3618 -26.1731 -26.1731 -26.1182 -26.1182
   -26.0292 -26.0292 -12.5417 -12.5417 -12.5086 -12.5086 -11.6359 -11.6359
   -11.5997 -11.5997 -11.5444 -11.5444  -1.4319  -1.4319   2.6990   2.6990
     4.7172   4.7172   6.5017   6.5017   7.0667   7.0667  13.0964  13.0964
    13.5413  13.5413  14.1740  14.1740  15.6719  15.6719

          k =-0.2000-0.6000 1.0000 (  1356 PWs)   bands (ev):

   -27.5846 -27.5846 -27.4008 -27.4008 -26.3196 -26.3196 -26.2137 -26.2137
   -26.0739 -26.0739 -12.6434 -12.6434 -12.5331 -12.5331 -11.7230 -11.7230
   -11.6601 -11.6601 -11.5769 -11.5769  -1.5137  -1.5137   2.4110   2.4110
     5.5379   5.5379   5.7509   5.7509   8.7206   8.7206  11.1204  11.1204
    14.1195  14.1195  14.3730  14.3730  15.3992  15.3992

     the Fermi energy is     9.8684 ev

!    total energy              =    -361.04171984 Ry
     Harris-Foulkes estimate   =    -361.04171984 Ry
     estimated scf accuracy    <          2.5E-09 Ry

     The total energy is the sum of the following terms:

     one-electron contribution =    -138.29799582 Ry
     hartree contribution      =      83.32430009 Ry
     xc contribution           =     -91.29723165 Ry
     ewald contribution        =    -214.77079246 Ry
     smearing contrib. (-TS)   =       0.00000000 Ry

     convergence has been achieved in  10 iterations

     Writing output data file snte.save
 
     init_run     :      0.79s CPU      0.84s WALL (       1 calls)
     electrons    :     24.30s CPU     26.08s WALL (       1 calls)

     Called by init_run:
     wfcinit      :      0.69s CPU      0.72s WALL (       1 calls)
     potinit      :      0.02s CPU      0.03s WALL (       1 calls)

     Called by electrons:
     c_bands      :     20.66s CPU     22.36s WALL (      10 calls)
     sum_band     :      3.41s CPU      3.45s WALL (      10 calls)
     v_of_rho     :      0.16s CPU      0.17s WALL (      11 calls)
     mix_rho      :      0.08s CPU      0.08s WALL (      10 calls)

     Called by c_bands:
     init_us_2    :      0.16s CPU      0.17s WALL (     210 calls)
     cegterg      :     18.35s CPU     18.51s WALL (     100 calls)

     Called by sum_band:

     Called by *egterg:
     h_psi        :     16.19s CPU     16.34s WALL (     360 calls)
     g_psi        :      0.11s CPU      0.11s WALL (     250 calls)
     cdiaghg      :      0.76s CPU      0.77s WALL (     350 calls)

     Called by h_psi:
     add_vuspsi   :      0.49s CPU      0.49s WALL (     360 calls)

     General routines
     calbec       :      0.45s CPU      0.46s WALL (     360 calls)
     fft          :      0.11s CPU      0.11s WALL (     184 calls)
     fftw         :     16.34s CPU     16.51s WALL (   46340 calls)
     davcio       :      0.00s CPU      0.02s WALL (      10 calls)
 
     Parallel routines
     fft_scatter  :      1.60s CPU      1.61s WALL (   46524 calls)
 
     PWSCF        :    25.36s CPU        27.42s WALL

 
   This run was terminated on:  12:52:54  28Apr2022            

=------------------------------------------------------------------------------=
   JOB DONE.
=------------------------------------------------------------------------------=
