
     Program PWSCF v.6.4 starts on 12May2022 at 11:56:50 

     This program is part of the open-source Quantum ESPRESSO suite
     for quantum simulation of materials; please cite
         "P. Giannozzi et al., J. Phys.:Condens. Matter 21 395502 (2009);
         "P. Giannozzi et al., J. Phys.:Condens. Matter 29 465901 (2017);
          URL http://www.quantum-espresso.org", 
     in publications or presentations arising from this work. More details at
     http://www.quantum-espresso.org/quote

     Parallel version (MPI), running on    16 processors

     MPI processes distributed on     1 nodes
     R & G space division:  proc/nbgrp/npool/nimage =      16
     Waiting for input...
     Reading input from standard input

     Current dimensions of program PWSCF are:
     Max number of different atomic species (ntypx) = 10
     Max number of k-points (npk) =  40000
     Max angular momentum in pseudopotentials (lmaxx) =  3
               file O.UPF: wavefunction(s)  2S 2P renormalized
               file Bi.UPF: wavefunction(s)  6P 5D renormalized
               file Cu.UPF: wavefunction(s)  4S 3D renormalized

     Subspace diagonalization in iterative solution of the eigenvalue problem:
     one sub-group per band group will be used
     scalapack distributed-memory algorithm (size of sub-group:  2*  2 procs)

 
     Parallelization info
     --------------------
     sticks:   dense  smooth     PW     G-vecs:    dense   smooth      PW
     Min         169     169     47                 4519     4519     680
     Max         170     170     50                 4522     4522     681
     Sum        2709    2709    761                72317    72317   10893
 


     bravais-lattice index     =            0
     lattice parameter (alat)  =       1.8897  a.u.
     unit-cell volume          =    2814.1876 (a.u.)^3
     number of atoms/cell      =           28
     number of atomic types    =            3
     number of electrons       =       260.00
     number of Kohn-Sham states=          156
     kinetic-energy cutoff     =      33.0900  Ry
     charge density cutoff     =     132.3600  Ry
     convergence threshold     =      1.0E-08
     mixing beta               =       0.7000
     number of iterations used =            8  plain     mixing
     Exchange-correlation      = SLA PW PBX PBC ( 1  4  3  4 0 0)

     celldm(1)=   1.889726  celldm(2)=   0.000000  celldm(3)=   0.000000
     celldm(4)=   0.000000  celldm(5)=   0.000000  celldm(6)=   0.000000

     crystal axes: (cart. coord. in units of alat)
               a(1) = (   8.475000   0.000000   0.000000 )  
               a(2) = (   0.000000   8.475000   0.000000 )  
               a(3) = (   0.000000   0.000000   5.806000 )  

     reciprocal axes: (cart. coord. in units 2 pi/alat)
               b(1) = (  0.117994  0.000000  0.000000 )  
               b(2) = (  0.000000  0.117994  0.000000 )  
               b(3) = (  0.000000  0.000000  0.172236 )  


     PseudoPot. # 1 for O  read from file:
     /scratch/irmik/jobs/614041/pseudo/O.UPF
     MD5 check sum: e99d9cef9b487d1ca56f5b95ecd0fd7a
     Pseudo is Projector augmented-wave + core cor, Zval =  6.0
     Generated using "atomic" code by A. Dal Corso v.6.3
     Shape of augmentation charge: PSQ
     Using radial grid of 1095 points,  4 beta functions with: 
                l(1) =   0
                l(2) =   0
                l(3) =   1
                l(4) =   1
     Q(r) pseudized with 0 coefficients 


     PseudoPot. # 2 for Bi read from file:
     /scratch/irmik/jobs/614041/pseudo/Bi.UPF
     MD5 check sum: 266ded784ae3bc462508ed03f0f37963
     Pseudo is Projector augmented-wave + core cor, Zval = 15.0
     Generated using "atomic" code by A. Dal Corso v.6.2.2
     Shape of augmentation charge: PSQ
     Using radial grid of 1283 points,  6 beta functions with: 
                l(1) =   0
                l(2) =   0
                l(3) =   1
                l(4) =   1
                l(5) =   2
                l(6) =   2
     Q(r) pseudized with 0 coefficients 


     PseudoPot. # 3 for Cu read from file:
     /scratch/irmik/jobs/614041/pseudo/Cu.UPF
     MD5 check sum: cfffd1f38ee05704b3e17f46f1730a6f
     Pseudo is Projector augmented-wave + core cor, Zval = 11.0
     Generated using "atomic" code by A. Dal Corso v.6.3
     Shape of augmentation charge: PSQ
     Using radial grid of 1199 points,  6 beta functions with: 
                l(1) =   0
                l(2) =   0
                l(3) =   1
                l(4) =   1
                l(5) =   2
                l(6) =   2
     Q(r) pseudized with 0 coefficients 


     atomic species   valence    mass     pseudopotential
        O              6.00    16.00000     O ( 1.00)
        Bi            15.00   209.00000     Bi( 1.00)
        Cu            11.00    64.00000     Cu( 1.00)

     16 Sym. Ops., with inversion, found (14 have fractional translation)


                                    s                        frac. trans.

      isym =  1     identity                                     

 cryst.   s( 1) = (     1          0          0      )
                  (     0          1          0      )
                  (     0          0          1      )

 cart.    s( 1) = (  1.0000000  0.0000000  0.0000000 )
                  (  0.0000000  1.0000000  0.0000000 )
                  (  0.0000000  0.0000000  1.0000000 )


      isym =  2     180 deg rotation - cart. axis [0,0,1]        

 cryst.   s( 2) = (    -1          0          0      )    f =(  0.5000000 )
                  (     0         -1          0      )       (  0.5000000 )
                  (     0          0          1      )       (  0.0000000 )

 cart.    s( 2) = ( -1.0000000  0.0000000  0.0000000 )    f =(  4.2375000 )
                  (  0.0000000 -1.0000000  0.0000000 )       (  4.2375000 )
                  (  0.0000000  0.0000000  1.0000000 )       (  0.0000000 )


      isym =  3     180 deg rotation - cart. axis [0,1,0]        

 cryst.   s( 3) = (    -1          0          0      )    f =(  0.0000000 )
                  (     0          1          0      )       ( -0.5000000 )
                  (     0          0         -1      )       ( -0.5000000 )

 cart.    s( 3) = ( -1.0000000  0.0000000  0.0000000 )    f =(  0.0000000 )
                  (  0.0000000  1.0000000  0.0000000 )       ( -4.2375000 )
                  (  0.0000000  0.0000000 -1.0000000 )       ( -2.9030000 )


      isym =  4     180 deg rotation - cart. axis [1,0,0]        

 cryst.   s( 4) = (     1          0          0      )    f =( -0.5000000 )
                  (     0         -1          0      )       (  0.0000000 )
                  (     0          0         -1      )       ( -0.5000000 )

 cart.    s( 4) = (  1.0000000  0.0000000  0.0000000 )    f =( -4.2375000 )
                  (  0.0000000 -1.0000000  0.0000000 )       (  0.0000000 )
                  (  0.0000000  0.0000000 -1.0000000 )       ( -2.9030000 )


      isym =  5     180 deg rotation - cart. axis [1,1,0]        

 cryst.   s( 5) = (     0          1          0      )    f =( -0.5000000 )
                  (     1          0          0      )       ( -0.5000000 )
                  (     0          0         -1      )       ( -0.5000000 )

 cart.    s( 5) = (  0.0000000  1.0000000  0.0000000 )    f =( -4.2375000 )
                  (  1.0000000  0.0000000  0.0000000 )       ( -4.2375000 )
                  (  0.0000000  0.0000000 -1.0000000 )       ( -2.9030000 )


      isym =  6     180 deg rotation - cart. axis [1,-1,0]       

 cryst.   s( 6) = (     0         -1          0      )    f =(  0.0000000 )
                  (    -1          0          0      )       (  0.0000000 )
                  (     0          0         -1      )       ( -0.5000000 )

 cart.    s( 6) = (  0.0000000 -1.0000000  0.0000000 )    f =(  0.0000000 )
                  ( -1.0000000  0.0000000  0.0000000 )       (  0.0000000 )
                  (  0.0000000  0.0000000 -1.0000000 )       ( -2.9030000 )


      isym =  7      90 deg rotation - cart. axis [0,0,-1]       

 cryst.   s( 7) = (     0         -1          0      )    f =(  0.0000000 )
                  (     1          0          0      )       (  0.5000000 )
                  (     0          0          1      )       (  0.0000000 )

 cart.    s( 7) = (  0.0000000  1.0000000  0.0000000 )    f =(  0.0000000 )
                  ( -1.0000000  0.0000000  0.0000000 )       (  4.2375000 )
                  (  0.0000000  0.0000000  1.0000000 )       (  0.0000000 )


      isym =  8      90 deg rotation - cart. axis [0,0,1]        

 cryst.   s( 8) = (     0          1          0      )    f =(  0.5000000 )
                  (    -1          0          0      )       (  0.0000000 )
                  (     0          0          1      )       (  0.0000000 )

 cart.    s( 8) = (  0.0000000 -1.0000000  0.0000000 )    f =(  4.2375000 )
                  (  1.0000000  0.0000000  0.0000000 )       (  0.0000000 )
                  (  0.0000000  0.0000000  1.0000000 )       (  0.0000000 )


      isym =  9     inversion                                    

 cryst.   s( 9) = (    -1          0          0      )
                  (     0         -1          0      )
                  (     0          0         -1      )

 cart.    s( 9) = ( -1.0000000  0.0000000  0.0000000 )
                  (  0.0000000 -1.0000000  0.0000000 )
                  (  0.0000000  0.0000000 -1.0000000 )


      isym = 10     inv. 180 deg rotation - cart. axis [0,0,1]   

 cryst.   s(10) = (     1          0          0      )    f =( -0.5000000 )
                  (     0          1          0      )       ( -0.5000000 )
                  (     0          0         -1      )       (  0.0000000 )

 cart.    s(10) = (  1.0000000  0.0000000  0.0000000 )    f =( -4.2375000 )
                  (  0.0000000  1.0000000  0.0000000 )       ( -4.2375000 )
                  (  0.0000000  0.0000000 -1.0000000 )       (  0.0000000 )


      isym = 11     inv. 180 deg rotation - cart. axis [0,1,0]   

 cryst.   s(11) = (     1          0          0      )    f =(  0.0000000 )
                  (     0         -1          0      )       (  0.5000000 )
                  (     0          0          1      )       (  0.5000000 )

 cart.    s(11) = (  1.0000000  0.0000000  0.0000000 )    f =(  0.0000000 )
                  (  0.0000000 -1.0000000  0.0000000 )       (  4.2375000 )
                  (  0.0000000  0.0000000  1.0000000 )       (  2.9030000 )


      isym = 12     inv. 180 deg rotation - cart. axis [1,0,0]   

 cryst.   s(12) = (    -1          0          0      )    f =(  0.5000000 )
                  (     0          1          0      )       (  0.0000000 )
                  (     0          0          1      )       (  0.5000000 )

 cart.    s(12) = ( -1.0000000  0.0000000  0.0000000 )    f =(  4.2375000 )
                  (  0.0000000  1.0000000  0.0000000 )       (  0.0000000 )
                  (  0.0000000  0.0000000  1.0000000 )       (  2.9030000 )


      isym = 13     inv. 180 deg rotation - cart. axis [1,1,0]   

 cryst.   s(13) = (     0         -1          0      )    f =(  0.5000000 )
                  (    -1          0          0      )       (  0.5000000 )
                  (     0          0          1      )       (  0.5000000 )

 cart.    s(13) = (  0.0000000 -1.0000000  0.0000000 )    f =(  4.2375000 )
                  ( -1.0000000  0.0000000  0.0000000 )       (  4.2375000 )
                  (  0.0000000  0.0000000  1.0000000 )       (  2.9030000 )


      isym = 14     inv. 180 deg rotation - cart. axis [1,-1,0]  

 cryst.   s(14) = (     0          1          0      )    f =(  0.0000000 )
                  (     1          0          0      )       (  0.0000000 )
                  (     0          0          1      )       (  0.5000000 )

 cart.    s(14) = (  0.0000000  1.0000000  0.0000000 )    f =(  0.0000000 )
                  (  1.0000000  0.0000000  0.0000000 )       (  0.0000000 )
                  (  0.0000000  0.0000000  1.0000000 )       (  2.9030000 )


      isym = 15     inv.  90 deg rotation - cart. axis [0,0,-1]  

 cryst.   s(15) = (     0          1          0      )    f =(  0.0000000 )
                  (    -1          0          0      )       ( -0.5000000 )
                  (     0          0         -1      )       (  0.0000000 )

 cart.    s(15) = (  0.0000000 -1.0000000  0.0000000 )    f =(  0.0000000 )
                  (  1.0000000  0.0000000  0.0000000 )       ( -4.2375000 )
                  (  0.0000000  0.0000000 -1.0000000 )       (  0.0000000 )


      isym = 16     inv.  90 deg rotation - cart. axis [0,0,1]   

 cryst.   s(16) = (     0         -1          0      )    f =( -0.5000000 )
                  (     1          0          0      )       (  0.0000000 )
                  (     0          0         -1      )       (  0.0000000 )

 cart.    s(16) = (  0.0000000  1.0000000  0.0000000 )    f =( -4.2375000 )
                  ( -1.0000000  0.0000000  0.0000000 )       (  0.0000000 )
                  (  0.0000000  0.0000000 -1.0000000 )       (  0.0000000 )


   Cartesian axes

     site n.     atom                  positions (alat units)
         1           O   tau(   1) = (   0.4152750   1.1949750   0.5167340  )
         2           O   tau(   2) = (   3.8222250   3.0425250   0.5167340  )
         3           O   tau(   3) = (   3.0425250   0.4152750   0.5167340  )
         4           O   tau(   4) = (   1.1949750   3.8222250   0.5167340  )
         5           O   tau(   5) = (   8.0597250   5.4324750   2.3862660  )
         6           O   tau(   6) = (   4.6527750   7.2800250   2.3862660  )
         7           O   tau(   7) = (   5.4324750   4.6527750   2.3862660  )
         8           O   tau(   8) = (   7.2800250   8.0597250   2.3862660  )
         9           O   tau(   9) = (   8.0597250   7.2800250   5.2892660  )
        10           O   tau(  10) = (   4.6527750   5.4324750   5.2892660  )
        11           O   tau(  11) = (   5.4324750   8.0597250   5.2892660  )
        12           O   tau(  12) = (   7.2800250   4.6527750   5.2892660  )
        13           O   tau(  13) = (   0.4152750   3.0425250   3.4197340  )
        14           O   tau(  14) = (   3.8222250   1.1949750   3.4197340  )
        15           O   tau(  15) = (   3.0425250   3.8222250   3.4197340  )
        16           O   tau(  16) = (   1.1949750   0.4152750   3.4197340  )
        17           Bi  tau(  17) = (   3.5425500   4.9324500   1.4515000  )
        18           Bi  tau(  18) = (   0.6949500   7.7800500   1.4515000  )
        19           Bi  tau(  19) = (   7.7800500   3.5425500   1.4515000  )
        20           Bi  tau(  20) = (   4.9324500   0.6949500   1.4515000  )
        21           Bi  tau(  21) = (   4.9324500   3.5425500   4.3545000  )
        22           Bi  tau(  22) = (   7.7800500   0.6949500   4.3545000  )
        23           Bi  tau(  23) = (   0.6949500   4.9324500   4.3545000  )
        24           Bi  tau(  24) = (   3.5425500   7.7800500   4.3545000  )
        25           Cu  tau(  25) = (   2.1187500   2.1187500   0.4528680  )
        26           Cu  tau(  26) = (   6.3562500   6.3562500   2.4501320  )
        27           Cu  tau(  27) = (   6.3562500   6.3562500   5.3531320  )
        28           Cu  tau(  28) = (   2.1187500   2.1187500   3.3558680  )

   Crystallographic axes

     site n.     atom                  positions (cryst. coord.)
         1           O   tau(   1) = (  0.0490000  0.1410000  0.0890000  )
         2           O   tau(   2) = (  0.4510000  0.3590000  0.0890000  )
         3           O   tau(   3) = (  0.3590000  0.0490000  0.0890000  )
         4           O   tau(   4) = (  0.1410000  0.4510000  0.0890000  )
         5           O   tau(   5) = (  0.9510000  0.6410000  0.4110000  )
         6           O   tau(   6) = (  0.5490000  0.8590000  0.4110000  )
         7           O   tau(   7) = (  0.6410000  0.5490000  0.4110000  )
         8           O   tau(   8) = (  0.8590000  0.9510000  0.4110000  )
         9           O   tau(   9) = (  0.9510000  0.8590000  0.9110000  )
        10           O   tau(  10) = (  0.5490000  0.6410000  0.9110000  )
        11           O   tau(  11) = (  0.6410000  0.9510000  0.9110000  )
        12           O   tau(  12) = (  0.8590000  0.5490000  0.9110000  )
        13           O   tau(  13) = (  0.0490000  0.3590000  0.5890000  )
        14           O   tau(  14) = (  0.4510000  0.1410000  0.5890000  )
        15           O   tau(  15) = (  0.3590000  0.4510000  0.5890000  )
        16           O   tau(  16) = (  0.1410000  0.0490000  0.5890000  )
        17           Bi  tau(  17) = (  0.4180000  0.5820000  0.2500000  )
        18           Bi  tau(  18) = (  0.0820000  0.9180000  0.2500000  )
        19           Bi  tau(  19) = (  0.9180000  0.4180000  0.2500000  )
        20           Bi  tau(  20) = (  0.5820000  0.0820000  0.2500000  )
        21           Bi  tau(  21) = (  0.5820000  0.4180000  0.7500000  )
        22           Bi  tau(  22) = (  0.9180000  0.0820000  0.7500000  )
        23           Bi  tau(  23) = (  0.0820000  0.5820000  0.7500000  )
        24           Bi  tau(  24) = (  0.4180000  0.9180000  0.7500000  )
        25           Cu  tau(  25) = (  0.2500000  0.2500000  0.0780000  )
        26           Cu  tau(  26) = (  0.7500000  0.7500000  0.4220000  )
        27           Cu  tau(  27) = (  0.7500000  0.7500000  0.9220000  )
        28           Cu  tau(  28) = (  0.2500000  0.2500000  0.5780000  )

     number of k points=    90  Methfessel-Paxton smearing, width (Ry)=  0.0010
                       cart. coord. in units 2pi/alat
        k(    1) = (   0.0000000   0.0000000   0.0000000), wk =   0.0022447
        k(    2) = (   0.0000000   0.0000000   0.0156578), wk =   0.0044893
        k(    3) = (   0.0000000   0.0000000   0.0313156), wk =   0.0044893
        k(    4) = (   0.0000000   0.0000000   0.0469734), wk =   0.0044893
        k(    5) = (   0.0000000   0.0000000   0.0626311), wk =   0.0044893
        k(    6) = (   0.0000000   0.0000000   0.0782889), wk =   0.0044893
        k(    7) = (   0.0000000   0.0131105   0.0000000), wk =   0.0089787
        k(    8) = (   0.0000000   0.0131105   0.0156578), wk =   0.0179574
        k(    9) = (   0.0000000   0.0131105   0.0313156), wk =   0.0179574
        k(   10) = (   0.0000000   0.0131105   0.0469734), wk =   0.0179574
        k(   11) = (   0.0000000   0.0131105   0.0626311), wk =   0.0179574
        k(   12) = (   0.0000000   0.0131105   0.0782889), wk =   0.0179574
        k(   13) = (   0.0000000   0.0262209   0.0000000), wk =   0.0089787
        k(   14) = (   0.0000000   0.0262209   0.0156578), wk =   0.0179574
        k(   15) = (   0.0000000   0.0262209   0.0313156), wk =   0.0179574
        k(   16) = (   0.0000000   0.0262209   0.0469734), wk =   0.0179574
        k(   17) = (   0.0000000   0.0262209   0.0626311), wk =   0.0179574
        k(   18) = (   0.0000000   0.0262209   0.0782889), wk =   0.0179574
        k(   19) = (   0.0000000   0.0393314   0.0000000), wk =   0.0089787
        k(   20) = (   0.0000000   0.0393314   0.0156578), wk =   0.0179574
        k(   21) = (   0.0000000   0.0393314   0.0313156), wk =   0.0179574
        k(   22) = (   0.0000000   0.0393314   0.0469734), wk =   0.0179574
        k(   23) = (   0.0000000   0.0393314   0.0626311), wk =   0.0179574
        k(   24) = (   0.0000000   0.0393314   0.0782889), wk =   0.0179574
        k(   25) = (   0.0000000   0.0524418   0.0000000), wk =   0.0089787
        k(   26) = (   0.0000000   0.0524418   0.0156578), wk =   0.0179574
        k(   27) = (   0.0000000   0.0524418   0.0313156), wk =   0.0179574
        k(   28) = (   0.0000000   0.0524418   0.0469734), wk =   0.0179574
        k(   29) = (   0.0000000   0.0524418   0.0626311), wk =   0.0179574
        k(   30) = (   0.0000000   0.0524418   0.0782889), wk =   0.0179574
        k(   31) = (   0.0131105   0.0131105   0.0000000), wk =   0.0089787
        k(   32) = (   0.0131105   0.0131105   0.0156578), wk =   0.0179574
        k(   33) = (   0.0131105   0.0131105   0.0313156), wk =   0.0179574
        k(   34) = (   0.0131105   0.0131105   0.0469734), wk =   0.0179574
        k(   35) = (   0.0131105   0.0131105   0.0626311), wk =   0.0179574
        k(   36) = (   0.0131105   0.0131105   0.0782889), wk =   0.0179574
        k(   37) = (   0.0131105   0.0262209   0.0000000), wk =   0.0179574
        k(   38) = (   0.0131105   0.0262209   0.0156578), wk =   0.0359147
        k(   39) = (   0.0131105   0.0262209   0.0313156), wk =   0.0359147
        k(   40) = (   0.0131105   0.0262209   0.0469734), wk =   0.0359147
        k(   41) = (   0.0131105   0.0262209   0.0626311), wk =   0.0359147
        k(   42) = (   0.0131105   0.0262209   0.0782889), wk =   0.0359147
        k(   43) = (   0.0131105   0.0393314   0.0000000), wk =   0.0179574
        k(   44) = (   0.0131105   0.0393314   0.0156578), wk =   0.0359147
        k(   45) = (   0.0131105   0.0393314   0.0313156), wk =   0.0359147
        k(   46) = (   0.0131105   0.0393314   0.0469734), wk =   0.0359147
        k(   47) = (   0.0131105   0.0393314   0.0626311), wk =   0.0359147
        k(   48) = (   0.0131105   0.0393314   0.0782889), wk =   0.0359147
        k(   49) = (   0.0131105   0.0524418   0.0000000), wk =   0.0179574
        k(   50) = (   0.0131105   0.0524418   0.0156578), wk =   0.0359147
        k(   51) = (   0.0131105   0.0524418   0.0313156), wk =   0.0359147
        k(   52) = (   0.0131105   0.0524418   0.0469734), wk =   0.0359147
        k(   53) = (   0.0131105   0.0524418   0.0626311), wk =   0.0359147
        k(   54) = (   0.0131105   0.0524418   0.0782889), wk =   0.0359147
        k(   55) = (   0.0262209   0.0262209   0.0000000), wk =   0.0089787
        k(   56) = (   0.0262209   0.0262209   0.0156578), wk =   0.0179574
        k(   57) = (   0.0262209   0.0262209   0.0313156), wk =   0.0179574
        k(   58) = (   0.0262209   0.0262209   0.0469734), wk =   0.0179574
        k(   59) = (   0.0262209   0.0262209   0.0626311), wk =   0.0179574
        k(   60) = (   0.0262209   0.0262209   0.0782889), wk =   0.0179574
        k(   61) = (   0.0262209   0.0393314   0.0000000), wk =   0.0179574
        k(   62) = (   0.0262209   0.0393314   0.0156578), wk =   0.0359147
        k(   63) = (   0.0262209   0.0393314   0.0313156), wk =   0.0359147
        k(   64) = (   0.0262209   0.0393314   0.0469734), wk =   0.0359147
        k(   65) = (   0.0262209   0.0393314   0.0626311), wk =   0.0359147
        k(   66) = (   0.0262209   0.0393314   0.0782889), wk =   0.0359147
        k(   67) = (   0.0262209   0.0524418   0.0000000), wk =   0.0179574
        k(   68) = (   0.0262209   0.0524418   0.0156578), wk =   0.0359147
        k(   69) = (   0.0262209   0.0524418   0.0313156), wk =   0.0359147
        k(   70) = (   0.0262209   0.0524418   0.0469734), wk =   0.0359147
        k(   71) = (   0.0262209   0.0524418   0.0626311), wk =   0.0359147
        k(   72) = (   0.0262209   0.0524418   0.0782889), wk =   0.0359147
        k(   73) = (   0.0393314   0.0393314   0.0000000), wk =   0.0089787
        k(   74) = (   0.0393314   0.0393314   0.0156578), wk =   0.0179574
        k(   75) = (   0.0393314   0.0393314   0.0313156), wk =   0.0179574
        k(   76) = (   0.0393314   0.0393314   0.0469734), wk =   0.0179574
        k(   77) = (   0.0393314   0.0393314   0.0626311), wk =   0.0179574
        k(   78) = (   0.0393314   0.0393314   0.0782889), wk =   0.0179574
        k(   79) = (   0.0393314   0.0524418   0.0000000), wk =   0.0179574
        k(   80) = (   0.0393314   0.0524418   0.0156578), wk =   0.0359147
        k(   81) = (   0.0393314   0.0524418   0.0313156), wk =   0.0359147
        k(   82) = (   0.0393314   0.0524418   0.0469734), wk =   0.0359147
        k(   83) = (   0.0393314   0.0524418   0.0626311), wk =   0.0359147
        k(   84) = (   0.0393314   0.0524418   0.0782889), wk =   0.0359147
        k(   85) = (   0.0524418   0.0524418   0.0000000), wk =   0.0089787
        k(   86) = (   0.0524418   0.0524418   0.0156578), wk =   0.0179574
        k(   87) = (   0.0524418   0.0524418   0.0313156), wk =   0.0179574
        k(   88) = (   0.0524418   0.0524418   0.0469734), wk =   0.0179574
        k(   89) = (   0.0524418   0.0524418   0.0626311), wk =   0.0179574
        k(   90) = (   0.0524418   0.0524418   0.0782889), wk =   0.0179574

                       cryst. coord.
        k(    1) = (   0.0000000   0.0000000   0.0000000), wk =   0.0022447
        k(    2) = (   0.0000000   0.0000000   0.0909091), wk =   0.0044893
        k(    3) = (   0.0000000   0.0000000   0.1818182), wk =   0.0044893
        k(    4) = (   0.0000000   0.0000000   0.2727273), wk =   0.0044893
        k(    5) = (   0.0000000   0.0000000   0.3636364), wk =   0.0044893
        k(    6) = (   0.0000000   0.0000000   0.4545455), wk =   0.0044893
        k(    7) = (   0.0000000   0.1111111   0.0000000), wk =   0.0089787
        k(    8) = (   0.0000000   0.1111111   0.0909091), wk =   0.0179574
        k(    9) = (   0.0000000   0.1111111   0.1818182), wk =   0.0179574
        k(   10) = (   0.0000000   0.1111111   0.2727273), wk =   0.0179574
        k(   11) = (   0.0000000   0.1111111   0.3636364), wk =   0.0179574
        k(   12) = (   0.0000000   0.1111111   0.4545455), wk =   0.0179574
        k(   13) = (   0.0000000   0.2222222   0.0000000), wk =   0.0089787
        k(   14) = (   0.0000000   0.2222222   0.0909091), wk =   0.0179574
        k(   15) = (   0.0000000   0.2222222   0.1818182), wk =   0.0179574
        k(   16) = (   0.0000000   0.2222222   0.2727273), wk =   0.0179574
        k(   17) = (   0.0000000   0.2222222   0.3636364), wk =   0.0179574
        k(   18) = (   0.0000000   0.2222222   0.4545455), wk =   0.0179574
        k(   19) = (   0.0000000   0.3333333   0.0000000), wk =   0.0089787
        k(   20) = (   0.0000000   0.3333333   0.0909091), wk =   0.0179574
        k(   21) = (   0.0000000   0.3333333   0.1818182), wk =   0.0179574
        k(   22) = (   0.0000000   0.3333333   0.2727273), wk =   0.0179574
        k(   23) = (   0.0000000   0.3333333   0.3636364), wk =   0.0179574
        k(   24) = (   0.0000000   0.3333333   0.4545455), wk =   0.0179574
        k(   25) = (   0.0000000   0.4444444   0.0000000), wk =   0.0089787
        k(   26) = (   0.0000000   0.4444444   0.0909091), wk =   0.0179574
        k(   27) = (   0.0000000   0.4444444   0.1818182), wk =   0.0179574
        k(   28) = (   0.0000000   0.4444444   0.2727273), wk =   0.0179574
        k(   29) = (   0.0000000   0.4444444   0.3636364), wk =   0.0179574
        k(   30) = (   0.0000000   0.4444444   0.4545455), wk =   0.0179574
        k(   31) = (   0.1111111   0.1111111   0.0000000), wk =   0.0089787
        k(   32) = (   0.1111111   0.1111111   0.0909091), wk =   0.0179574
        k(   33) = (   0.1111111   0.1111111   0.1818182), wk =   0.0179574
        k(   34) = (   0.1111111   0.1111111   0.2727273), wk =   0.0179574
        k(   35) = (   0.1111111   0.1111111   0.3636364), wk =   0.0179574
        k(   36) = (   0.1111111   0.1111111   0.4545455), wk =   0.0179574
        k(   37) = (   0.1111111   0.2222222   0.0000000), wk =   0.0179574
        k(   38) = (   0.1111111   0.2222222   0.0909091), wk =   0.0359147
        k(   39) = (   0.1111111   0.2222222   0.1818182), wk =   0.0359147
        k(   40) = (   0.1111111   0.2222222   0.2727273), wk =   0.0359147
        k(   41) = (   0.1111111   0.2222222   0.3636364), wk =   0.0359147
        k(   42) = (   0.1111111   0.2222222   0.4545455), wk =   0.0359147
        k(   43) = (   0.1111111   0.3333333   0.0000000), wk =   0.0179574
        k(   44) = (   0.1111111   0.3333333   0.0909091), wk =   0.0359147
        k(   45) = (   0.1111111   0.3333333   0.1818182), wk =   0.0359147
        k(   46) = (   0.1111111   0.3333333   0.2727273), wk =   0.0359147
        k(   47) = (   0.1111111   0.3333333   0.3636364), wk =   0.0359147
        k(   48) = (   0.1111111   0.3333333   0.4545455), wk =   0.0359147
        k(   49) = (   0.1111111   0.4444444   0.0000000), wk =   0.0179574
        k(   50) = (   0.1111111   0.4444444   0.0909091), wk =   0.0359147
        k(   51) = (   0.1111111   0.4444444   0.1818182), wk =   0.0359147
        k(   52) = (   0.1111111   0.4444444   0.2727273), wk =   0.0359147
        k(   53) = (   0.1111111   0.4444444   0.3636364), wk =   0.0359147
        k(   54) = (   0.1111111   0.4444444   0.4545455), wk =   0.0359147
        k(   55) = (   0.2222222   0.2222222   0.0000000), wk =   0.0089787
        k(   56) = (   0.2222222   0.2222222   0.0909091), wk =   0.0179574
        k(   57) = (   0.2222222   0.2222222   0.1818182), wk =   0.0179574
        k(   58) = (   0.2222222   0.2222222   0.2727273), wk =   0.0179574
        k(   59) = (   0.2222222   0.2222222   0.3636364), wk =   0.0179574
        k(   60) = (   0.2222222   0.2222222   0.4545455), wk =   0.0179574
        k(   61) = (   0.2222222   0.3333333   0.0000000), wk =   0.0179574
        k(   62) = (   0.2222222   0.3333333   0.0909091), wk =   0.0359147
        k(   63) = (   0.2222222   0.3333333   0.1818182), wk =   0.0359147
        k(   64) = (   0.2222222   0.3333333   0.2727273), wk =   0.0359147
        k(   65) = (   0.2222222   0.3333333   0.3636364), wk =   0.0359147
        k(   66) = (   0.2222222   0.3333333   0.4545455), wk =   0.0359147
        k(   67) = (   0.2222222   0.4444444   0.0000000), wk =   0.0179574
        k(   68) = (   0.2222222   0.4444444   0.0909091), wk =   0.0359147
        k(   69) = (   0.2222222   0.4444444   0.1818182), wk =   0.0359147
        k(   70) = (   0.2222222   0.4444444   0.2727273), wk =   0.0359147
        k(   71) = (   0.2222222   0.4444444   0.3636364), wk =   0.0359147
        k(   72) = (   0.2222222   0.4444444   0.4545455), wk =   0.0359147
        k(   73) = (   0.3333333   0.3333333   0.0000000), wk =   0.0089787
        k(   74) = (   0.3333333   0.3333333   0.0909091), wk =   0.0179574
        k(   75) = (   0.3333333   0.3333333   0.1818182), wk =   0.0179574
        k(   76) = (   0.3333333   0.3333333   0.2727273), wk =   0.0179574
        k(   77) = (   0.3333333   0.3333333   0.3636364), wk =   0.0179574
        k(   78) = (   0.3333333   0.3333333   0.4545455), wk =   0.0179574
        k(   79) = (   0.3333333   0.4444444   0.0000000), wk =   0.0179574
        k(   80) = (   0.3333333   0.4444444   0.0909091), wk =   0.0359147
        k(   81) = (   0.3333333   0.4444444   0.1818182), wk =   0.0359147
        k(   82) = (   0.3333333   0.4444444   0.2727273), wk =   0.0359147
        k(   83) = (   0.3333333   0.4444444   0.3636364), wk =   0.0359147
        k(   84) = (   0.3333333   0.4444444   0.4545455), wk =   0.0359147
        k(   85) = (   0.4444444   0.4444444   0.0000000), wk =   0.0089787
        k(   86) = (   0.4444444   0.4444444   0.0909091), wk =   0.0179574
        k(   87) = (   0.4444444   0.4444444   0.1818182), wk =   0.0179574
        k(   88) = (   0.4444444   0.4444444   0.2727273), wk =   0.0179574
        k(   89) = (   0.4444444   0.4444444   0.3636364), wk =   0.0179574
        k(   90) = (   0.4444444   0.4444444   0.4545455), wk =   0.0179574

     Dense  grid:    72317 G-vectors     FFT dimensions: (  60,  60,  48)

     Dynamical RAM for                 wfc:       1.34 MB

     Dynamical RAM for     wfc (w. buffer):     122.39 MB

     Dynamical RAM for           str. fact:       0.21 MB

     Dynamical RAM for           local pot:       0.00 MB

     Dynamical RAM for          nlocal pot:       2.97 MB

     Dynamical RAM for                qrad:       0.84 MB

     Dynamical RAM for          rho,v,vnew:       0.45 MB

     Dynamical RAM for               rhoin:       0.15 MB

     Dynamical RAM for            rho*nmix:       1.10 MB

     Dynamical RAM for           G-vectors:       0.29 MB

     Dynamical RAM for          h,s,v(r/c):       4.46 MB

     Dynamical RAM for          <psi|beta>:       0.82 MB

     Dynamical RAM for                 psi:       5.38 MB

     Dynamical RAM for                hpsi:       5.38 MB

     Dynamical RAM for                spsi:       5.38 MB

     Dynamical RAM for      wfcinit/wfcrot:       3.64 MB

     Dynamical RAM for           addusdens:      13.94 MB

     Estimated static dynamical RAM per process >     129.09 MB

     Estimated max dynamical RAM per process >     150.51 MB

     Estimated total dynamical RAM >       2.35 GB

     Check: negative core charge=   -0.000070

     Initial potential from superposition of free atoms

     starting charge  259.99255, renormalised to  260.00000
     Starting wfcs are  172 randomized atomic wfcs
     Checking if some PAW data can be deallocated... 
       PAW data deallocated on    8 nodes for type:  1
       PAW data deallocated on   12 nodes for type:  2
       PAW data deallocated on   12 nodes for type:  3

     total cpu time spent up to now is       12.7 secs

     Self-consistent Calculation

     iteration #  1     ecut=    33.09 Ry     beta= 0.70
     Davidson diagonalization with overlap
     ethr =  1.00E-02,  avg # of iterations =  2.8

     total cpu time spent up to now is       56.8 secs

     total energy              =   -8762.70074156 Ry
     Harris-Foulkes estimate   =   -8769.64931555 Ry
     estimated scf accuracy    <       8.87373884 Ry

     iteration #  2     ecut=    33.09 Ry     beta= 0.70
     Davidson diagonalization with overlap
     ethr =  3.41E-03,  avg # of iterations =  3.8

     total cpu time spent up to now is      130.5 secs

     total energy              =   -8762.46455550 Ry
     Harris-Foulkes estimate   =   -8773.90714207 Ry
     estimated scf accuracy    <      29.29648107 Ry

     iteration #  3     ecut=    33.09 Ry     beta= 0.70
     Davidson diagonalization with overlap
     ethr =  3.41E-03,  avg # of iterations =  3.0

     total cpu time spent up to now is      183.7 secs

     total energy              =   -8767.50510607 Ry
     Harris-Foulkes estimate   =   -8767.69635783 Ry
     estimated scf accuracy    <       0.50373926 Ry

     iteration #  4     ecut=    33.09 Ry     beta= 0.70
     Davidson diagonalization with overlap
     ethr =  1.94E-04,  avg # of iterations =  2.3

     total cpu time spent up to now is      221.6 secs

     total energy              =   -8767.58669350 Ry
     Harris-Foulkes estimate   =   -8767.66106298 Ry
     estimated scf accuracy    <       0.23179127 Ry

     iteration #  5     ecut=    33.09 Ry     beta= 0.70
     Davidson diagonalization with overlap
     ethr =  8.92E-05,  avg # of iterations =  2.0

     total cpu time spent up to now is      254.1 secs

     total energy              =   -8767.62058409 Ry
     Harris-Foulkes estimate   =   -8767.62158217 Ry
     estimated scf accuracy    <       0.00615578 Ry

     iteration #  6     ecut=    33.09 Ry     beta= 0.70
     Davidson diagonalization with overlap
     ethr =  2.37E-06,  avg # of iterations =  6.8

     total cpu time spent up to now is      359.0 secs

     total energy              =   -8767.62118223 Ry
     Harris-Foulkes estimate   =   -8767.62238554 Ry
     estimated scf accuracy    <       0.00320369 Ry

     iteration #  7     ecut=    33.09 Ry     beta= 0.70
     Davidson diagonalization with overlap
     ethr =  1.23E-06,  avg # of iterations =  2.0

     total cpu time spent up to now is      389.9 secs

     total energy              =   -8767.62166483 Ry
     Harris-Foulkes estimate   =   -8767.62166337 Ry
     estimated scf accuracy    <       0.00000672 Ry

     iteration #  8     ecut=    33.09 Ry     beta= 0.70
     Davidson diagonalization with overlap
     ethr =  2.58E-09,  avg # of iterations =  4.1

     total cpu time spent up to now is      487.3 secs

     total energy              =   -8767.62167944 Ry
     Harris-Foulkes estimate   =   -8767.62168094 Ry
     estimated scf accuracy    <       0.00000589 Ry

     iteration #  9     ecut=    33.09 Ry     beta= 0.70
     Davidson diagonalization with overlap
     ethr =  2.26E-09,  avg # of iterations =  1.1

     total cpu time spent up to now is      512.0 secs

     total energy              =   -8767.62167979 Ry
     Harris-Foulkes estimate   =   -8767.62167996 Ry
     estimated scf accuracy    <       0.00000072 Ry

     iteration # 10     ecut=    33.09 Ry     beta= 0.70
     Davidson diagonalization with overlap
     ethr =  2.77E-10,  avg # of iterations =  3.2

     total cpu time spent up to now is      562.0 secs

     total energy              =   -8767.62168005 Ry
     Harris-Foulkes estimate   =   -8767.62168006 Ry
     estimated scf accuracy    <       0.00000004 Ry

     iteration # 11     ecut=    33.09 Ry     beta= 0.70
     Davidson diagonalization with overlap
     ethr =  1.70E-11,  avg # of iterations =  2.0

     total cpu time spent up to now is      594.8 secs

     total energy              =   -8767.62168005 Ry
     Harris-Foulkes estimate   =   -8767.62168006 Ry
     estimated scf accuracy    <       0.00000002 Ry

     iteration # 12     ecut=    33.09 Ry     beta= 0.70
     Davidson diagonalization with overlap
     ethr =  7.82E-12,  avg # of iterations =  2.1

     total cpu time spent up to now is      631.9 secs

     End of self-consistent calculation

          k = 0.0000 0.0000 0.0000 (  9037 PWs)   bands (ev):

   -12.9276 -12.8900 -12.8779 -12.8779 -12.8748 -12.8748 -12.8609 -12.8465
   -12.8336 -12.8057 -12.8057 -12.7906 -12.6530 -12.6530 -12.6356 -12.6346
   -12.6251 -12.6156 -12.6156 -12.6022 -12.5889 -12.5889 -12.5858 -12.5844
   -12.5844 -12.5809 -12.5694 -12.5685 -12.5685 -12.5671 -12.5658 -12.5408
   -12.5309 -12.5277 -12.5178 -12.5178 -12.5108 -12.5108 -12.5087 -12.5029
    -9.7675  -9.2617  -9.2617  -8.8746  -8.3495  -8.2857  -7.8545  -7.8440
    -7.8440  -7.8286  -7.8286  -7.6010  -7.4922  -7.4922  -7.4318  -7.4193
    -1.4070  -0.7493  -0.7493  -0.5344   0.0760   0.7125   0.8637   0.8637
     3.3314   3.7534   4.1865   4.1978   4.1978   4.5903   4.6148   4.6804
     4.7589   4.7878   4.8050   4.8050   5.0045   5.0045   5.0636   5.1723
     5.4599   5.5905   5.5905   5.9378   5.9823   5.9823   6.1591   6.1664
     6.4088   6.4531   6.4531   6.6457   6.6457   6.7492   6.9200   6.9631
     6.9631   7.0158   7.0351   7.0400   7.0400   7.0403   7.1246   7.2445
     7.2445   7.4378   7.4869   7.5653   7.6868   7.8158   7.8158   8.0554
     8.0580   8.0580   8.1509   8.1674   8.3120   8.3120   8.5801   8.5801
     8.8039   8.8039   8.8421   8.8507   8.9206   9.1023   9.2130   9.2130
     9.9826  10.4337  10.5734  10.6315  11.6417  12.1493  12.6827  12.9765
    13.3178  13.3178  13.3716  13.7355  14.3101  14.3101  14.3670  14.4380
    14.5826  14.5826  14.6480  15.0207  15.0241  15.0241  15.4048  15.4850
    15.7730  15.8354  15.8354  15.9234

     occupation numbers 
     1.0000   1.0000   1.0000   1.0000   1.0000   1.0000   1.0000   1.0000
     1.0000   1.0000   1.0000   1.0000   1.0000   1.0000   1.0000   1.0000
     1.0000   1.0000   1.0000   1.0000   1.0000   1.0000   1.0000   1.0000
     1.0000   1.0000   1.0000   1.0000   1.0000   1.0000   1.0000   1.0000
     1.0000   1.0000   1.0000   1.0000   1.0000   1.0000   1.0000   1.0000
     1.0000   1.0000   1.0000   1.0000   1.0000   1.0000   1.0000   1.0000
     1.0000   1.0000   1.0000   1.0000   1.0000   1.0000   1.0000   1.0000
     1.0000   1.0000   1.0000   1.0000   1.0000   1.0000   1.0000   1.0000
     1.0000   1.0000   1.0000   1.0000   1.0000   1.0000   1.0000   1.0000
     1.0000   1.0000   1.0000   1.0000   1.0000   1.0000   1.0000   1.0000
     1.0000   1.0000   1.0000   1.0000   1.0000   1.0000   1.0000   1.0000
     1.0000   1.0000   1.0000   1.0000   1.0000   1.0000   1.0000   1.0000
     1.0000   1.0000   1.0000   1.0000   1.0000   1.0000   1.0000   1.0000
     1.0000   1.0000   1.0000   1.0000   1.0000   1.0000   1.0000   1.0000
     1.0000   1.0000   1.0000   1.0000   1.0000   1.0000   1.0000   1.0000
     1.0000   1.0000   1.0000   1.0000   1.0000   1.0000   1.0000   1.0000
     1.0000   0.2837  -0.0000  -0.0000  -0.0000  -0.0000  -0.0000  -0.0000
    -0.0000  -0.0000  -0.0000  -0.0000  -0.0000  -0.0000  -0.0000  -0.0000
    -0.0000  -0.0000  -0.0000  -0.0000  -0.0000  -0.0000  -0.0000  -0.0000
    -0.0000  -0.0000  -0.0000  -0.0000

          k = 0.0000 0.0000 0.0157 (  9036 PWs)   bands (ev):

   -12.9314 -12.9053 -12.9053 -12.8971 -12.8568 -12.8568 -12.8473 -12.8334
   -12.8229 -12.8047 -12.8047 -12.7958 -12.6518 -12.6454 -12.6454 -12.6214
   -12.6187 -12.6187 -12.6103 -12.6032 -12.5980 -12.5924 -12.5924 -12.5831
   -12.5831 -12.5743 -12.5708 -12.5708 -12.5638 -12.5621 -12.5573 -12.5367
   -12.5317 -12.5211 -12.5197 -12.5193 -12.5193 -12.5143 -12.5143 -12.5069
    -9.7464  -9.2421  -9.2421  -8.8579  -8.3413  -8.3341  -7.9179  -7.9179
    -7.8434  -7.7994  -7.7994  -7.6733  -7.4751  -7.4751  -7.4124  -7.3868
    -1.3803  -0.7143  -0.7143  -0.4957   0.0403   0.7013   0.8317   0.8317
     3.3674   3.7364   4.1458   4.2317   4.2317   4.5375   4.6543   4.6916
     4.7582   4.7806   4.7806   4.8290   5.0049   5.0049   5.0943   5.2058
     5.4680   5.6301   5.6301   5.9332   5.9375   5.9375   6.0101   6.1487
     6.4397   6.5013   6.5013   6.6464   6.6464   6.8604   6.8783   6.8783
     6.8794   6.9461   7.0508   7.0760   7.0760   7.1009   7.1028   7.2370
     7.2370   7.3478   7.5054   7.6273   7.7187   7.8303   7.8303   8.0564
     8.0657   8.0657   8.1496   8.1701   8.3172   8.3172   8.5654   8.5654
     8.7458   8.7905   8.7905   8.8846   8.9090   9.0991   9.2133   9.2133
     9.9475  10.3716  10.6076  10.6455  11.6497  12.2233  12.7305  12.9437
    13.3089  13.3089  13.3378  13.8469  14.2048  14.2048  14.2505  14.4645
    14.5657  14.5657  14.6127  15.0312  15.2254  15.2254  15.4909  15.5374
    15.7524  15.8268  15.8268  15.8751

     occupation numbers 
     1.0000   1.0000   1.0000   1.0000   1.0000   1.0000   1.0000   1.0000
     1.0000   1.0000   1.0000   1.0000   1.0000   1.0000   1.0000   1.0000
     1.0000   1.0000   1.0000   1.0000   1.0000   1.0000   1.0000   1.0000
     1.0000   1.0000   1.0000   1.0000   1.0000   1.0000   1.0000   1.0000
     1.0000   1.0000   1.0000   1.0000   1.0000   1.0000   1.0000   1.0000
     1.0000   1.0000   1.0000   1.0000   1.0000   1.0000   1.0000   1.0000
     1.0000   1.0000   1.0000   1.0000   1.0000   1.0000   1.0000   1.0000
     1.0000   1.0000   1.0000   1.0000   1.0000   1.0000   1.0000   1.0000
     1.0000   1.0000   1.0000   1.0000   1.0000   1.0000   1.0000   1.0000
     1.0000   1.0000   1.0000   1.0000   1.0000   1.0000   1.0000   1.0000
     1.0000   1.0000   1.0000   1.0000   1.0000   1.0000   1.0000   1.0000
     1.0000   1.0000   1.0000   1.0000   1.0000   1.0000   1.0000   1.0000
     1.0000   1.0000   1.0000   1.0000   1.0000   1.0000   1.0000   1.0000
     1.0000   1.0000   1.0000   1.0000   1.0000   1.0000   1.0000   1.0000
     1.0000   1.0000   1.0000   1.0000   1.0000   1.0000   1.0000   1.0000
     1.0000   1.0000   1.0000   1.0000   1.0000   1.0000   1.0000   1.0000
     1.0000   1.0000  -0.0000  -0.0000  -0.0000  -0.0000  -0.0000  -0.0000
    -0.0000  -0.0000  -0.0000  -0.0000  -0.0000  -0.0000  -0.0000  -0.0000
    -0.0000  -0.0000  -0.0000  -0.0000  -0.0000  -0.0000  -0.0000  -0.0000
    -0.0000  -0.0000  -0.0000  -0.0000

          k = 0.0000 0.0000 0.0313 (  9004 PWs)   bands (ev):

   -12.9338 -12.9161 -12.9161 -12.9144 -12.8631 -12.8410 -12.8410 -12.7995
   -12.7981 -12.7883 -12.7883 -12.7770 -12.6457 -12.6232 -12.6232 -12.6206
   -12.6147 -12.6147 -12.5958 -12.5953 -12.5919 -12.5919 -12.5874 -12.5829
   -12.5753 -12.5753 -12.5586 -12.5575 -12.5575 -12.5501 -12.5460 -12.5454
   -12.5382 -12.5291 -12.5145 -12.5145 -12.5104 -12.5031 -12.5031 -12.5023
    -9.6832  -9.1838  -9.1838  -8.8076  -8.4810  -8.2890  -8.0581  -8.0581
    -7.8322  -7.8123  -7.7600  -7.7600  -7.4491  -7.4491  -7.3937  -7.3269
    -1.3007  -0.6135  -0.6135  -0.3876  -0.0620   0.6642   0.7399   0.7399
     3.4620   3.6997   4.0532   4.3190   4.3190   4.4519   4.6976   4.7272
     4.7426   4.7426   4.7684   4.9397   4.9975   4.9975   5.1296   5.2924
     5.5045   5.6631   5.6631   5.7307   5.9163   5.9163   5.9344   6.1406
     6.5110   6.5171   6.5171   6.6795   6.6795   6.7951   6.7998   6.8038
     6.8038   6.9819   7.0050   7.0917   7.0917   7.1048   7.2069   7.2069
     7.2482   7.2784   7.5686   7.7004   7.8066   7.8750   7.8750   8.0600
     8.0896   8.0896   8.1431   8.1718   8.3292   8.3292   8.5191   8.5191
     8.6131   8.7786   8.7786   8.8351   8.8892   9.0887   9.2011   9.2011
     9.8651  10.2597  10.6624  10.6759  11.6995  12.4145  12.8751  12.8792
    13.2645  13.2829  13.2829  13.8962  13.9945  13.9945  14.1186  14.5775
    14.6504  14.6504  14.7142  14.9935  15.5117  15.5479  15.5479  15.7008
    15.7049  15.7404  15.8161  15.8161

     occupation numbers 
     1.0000   1.0000   1.0000   1.0000   1.0000   1.0000   1.0000   1.0000
     1.0000   1.0000   1.0000   1.0000   1.0000   1.0000   1.0000   1.0000
     1.0000   1.0000   1.0000   1.0000   1.0000   1.0000   1.0000   1.0000
     1.0000   1.0000   1.0000   1.0000   1.0000   1.0000   1.0000   1.0000
     1.0000   1.0000   1.0000   1.0000   1.0000   1.0000   1.0000   1.0000
     1.0000   1.0000   1.0000   1.0000   1.0000   1.0000   1.0000   1.0000
     1.0000   1.0000   1.0000   1.0000   1.0000   1.0000   1.0000   1.0000
     1.0000   1.0000   1.0000   1.0000   1.0000   1.0000   1.0000   1.0000
     1.0000   1.0000   1.0000   1.0000   1.0000   1.0000   1.0000   1.0000
     1.0000   1.0000   1.0000   1.0000   1.0000   1.0000   1.0000   1.0000
     1.0000   1.0000   1.0000   1.0000   1.0000   1.0000   1.0000   1.0000
     1.0000   1.0000   1.0000   1.0000   1.0000   1.0000   1.0000   1.0000
     1.0000   1.0000   1.0000   1.0000   1.0000   1.0000   1.0000   1.0000
     1.0000   1.0000   1.0000   1.0000   1.0000   1.0000   1.0000   1.0000
     1.0000   1.0000   1.0000   1.0000   1.0000   1.0000   1.0000   1.0000
     1.0000   1.0000   1.0000   1.0000   1.0000   1.0000   1.0000   1.0000
     1.0000   1.0000  -0.0000  -0.0000  -0.0000  -0.0000  -0.0000  -0.0000
    -0.0000  -0.0000  -0.0000  -0.0000  -0.0000  -0.0000  -0.0000  -0.0000
    -0.0000  -0.0000  -0.0000  -0.0000  -0.0000  -0.0000  -0.0000  -0.0000
    -0.0000  -0.0000  -0.0000  -0.0000

          k = 0.0000 0.0000 0.0470 (  9068 PWs)   bands (ev):

   -12.9407 -12.9405 -12.9405 -12.9298 -12.8945 -12.8628 -12.8628 -12.8275
   -12.7921 -12.7700 -12.7700 -12.7588 -12.6458 -12.6377 -12.6377 -12.6324
   -12.6320 -12.6226 -12.6226 -12.6161 -12.6161 -12.6043 -12.6016 -12.6003
   -12.5753 -12.5753 -12.5722 -12.5660 -12.5641 -12.5641 -12.5563 -12.5557
   -12.5452 -12.5425 -12.5387 -12.5387 -12.5284 -12.5284 -12.5169 -12.5146
    -9.5802  -9.0889  -9.0889  -8.7251  -8.6678  -8.2361  -8.2361  -8.2211
    -7.9773  -7.8461  -7.7067  -7.7067  -7.4464  -7.4464  -7.3669  -7.2903
    -1.1758  -0.4569  -0.4569  -0.2275  -0.2180   0.5931   0.5931   0.5961
     3.6054   3.6696   3.9379   4.3715   4.4578   4.4578   4.6175   4.7069
     4.7069   4.7727   4.9270   4.9554   4.9554   4.9836   5.1055   5.4010
     5.5165   5.5374   5.5517   5.5517   5.9838   6.0395   6.0395   6.1333
     6.4388   6.4388   6.5589   6.6120   6.6869   6.6885   6.6885   6.7580
     6.8210   6.8210   7.0490   7.0490   7.0818   7.1636   7.1636   7.2182
     7.2645   7.4409   7.6677   7.7403   7.8923   7.9406   7.9406   8.0647
     8.1202   8.1260   8.1260   8.1411   8.3361   8.3361   8.4378   8.4378
     8.4615   8.6965   8.7868   8.7868   8.8760   9.0614   9.1525   9.1525
     9.7774  10.1170  10.6994  10.7072  11.8173  12.6231  12.8265  13.1176
    13.1471  13.2564  13.2564  13.5948  13.7946  13.7946  14.3100  14.6440
    14.8359  14.8359  14.8965  15.0215  15.5607  15.5840  15.6220  15.7028
    15.7806  15.7806  15.8167  15.8167

     occupation numbers 
     1.0000   1.0000   1.0000   1.0000   1.0000   1.0000   1.0000   1.0000
     1.0000   1.0000   1.0000   1.0000   1.0000   1.0000   1.0000   1.0000
     1.0000   1.0000   1.0000   1.0000   1.0000   1.0000   1.0000   1.0000
     1.0000   1.0000   1.0000   1.0000   1.0000   1.0000   1.0000   1.0000
     1.0000   1.0000   1.0000   1.0000   1.0000   1.0000   1.0000   1.0000
     1.0000   1.0000   1.0000   1.0000   1.0000   1.0000   1.0000   1.0000
     1.0000   1.0000   1.0000   1.0000   1.0000   1.0000   1.0000   1.0000
     1.0000   1.0000   1.0000   1.0000   1.0000   1.0000   1.0000   1.0000
     1.0000   1.0000   1.0000   1.0000   1.0000   1.0000   1.0000   1.0000
     1.0000   1.0000   1.0000   1.0000   1.0000   1.0000   1.0000   1.0000
     1.0000   1.0000   1.0000   1.0000   1.0000   1.0000   1.0000   1.0000
     1.0000   1.0000   1.0000   1.0000   1.0000   1.0000   1.0000   1.0000
     1.0000   1.0000   1.0000   1.0000   1.0000   1.0000   1.0000   1.0000
     1.0000   1.0000   1.0000   1.0000   1.0000   1.0000   1.0000   1.0000
     1.0000   1.0000   1.0000   1.0000   1.0000   1.0000   1.0000   1.0000
     1.0000   1.0000   1.0000   1.0000   1.0000   1.0000   1.0000   1.0000
     1.0000   1.0000  -0.0000  -0.0000  -0.0000  -0.0000  -0.0000  -0.0000
    -0.0000  -0.0000  -0.0000  -0.0000  -0.0000  -0.0000  -0.0000  -0.0000
    -0.0000  -0.0000  -0.0000  -0.0000  -0.0000  -0.0000  -0.0000  -0.0000
    -0.0000  -0.0000  -0.0000  -0.0000

          k = 0.0000 0.0000 0.0626 (  9088 PWs)   bands (ev):

   -12.9433 -12.9433 -12.9388 -12.9329 -12.9122 -12.8929 -12.8929 -12.8590
   -12.7497 -12.7415 -12.7415 -12.7282 -12.6517 -12.6517 -12.6480 -12.6447
   -12.6282 -12.6257 -12.6257 -12.6225 -12.6225 -12.6177 -12.6123 -12.6097
   -12.5764 -12.5764 -12.5696 -12.5690 -12.5670 -12.5670 -12.5598 -12.5544
   -12.5540 -12.5506 -12.5506 -12.5389 -12.5360 -12.5360 -12.5312 -12.5223
    -9.4406  -8.9599  -8.9599  -8.8716  -8.6128  -8.4291  -8.4291  -8.1491
    -8.1376  -7.8918  -7.6431  -7.6431  -7.4694  -7.4694  -7.3347  -7.2761
    -1.0126  -0.4084  -0.2595  -0.2595  -0.0341   0.4046   0.4046   0.4899
     3.6640   3.8006   3.8324   4.2913   4.5613   4.6142   4.6142   4.7374
     4.7374   4.8309   4.8392   4.8827   4.8827   5.0434   5.1030   5.3738
     5.3738   5.5048   5.5246   5.5290   6.0840   6.1480   6.2156   6.2156
     6.4214   6.4294   6.4294   6.5183   6.5659   6.5850   6.6173   6.6173
     6.8212   6.8212   7.0154   7.0154   7.1375   7.1375   7.1435   7.2625
     7.4048   7.6280   7.7654   7.7913   7.9417   8.0211   8.0211   8.0685
     8.0717   8.1181   8.1673   8.1673   8.2987   8.3155   8.3155   8.3618
     8.3618   8.5077   8.8237   8.8237   8.8908   9.0253   9.0780   9.0780
     9.7301   9.9696  10.7195  10.7292  12.0000  12.6536  12.8081  13.0225
    13.2685  13.2685  13.4083  13.5849  13.6199  13.6199  14.2394  14.5602
    14.9711  15.0950  15.0950  15.2659  15.5443  15.5506  15.6705  15.7174
    15.8078  15.8078  15.8450  15.8450

     occupation numbers 
     1.0000   1.0000   1.0000   1.0000   1.0000   1.0000   1.0000   1.0000
     1.0000   1.0000   1.0000   1.0000   1.0000   1.0000   1.0000   1.0000
     1.0000   1.0000   1.0000   1.0000   1.0000   1.0000   1.0000   1.0000
     1.0000   1.0000   1.0000   1.0000   1.0000   1.0000   1.0000   1.0000
     1.0000   1.0000   1.0000   1.0000   1.0000   1.0000   1.0000   1.0000
     1.0000   1.0000   1.0000   1.0000   1.0000   1.0000   1.0000   1.0000
     1.0000   1.0000   1.0000   1.0000   1.0000   1.0000   1.0000   1.0000
     1.0000   1.0000   1.0000   1.0000   1.0000   1.0000   1.0000   1.0000
     1.0000   1.0000   1.0000   1.0000   1.0000   1.0000   1.0000   1.0000
     1.0000   1.0000   1.0000   1.0000   1.0000   1.0000   1.0000   1.0000
     1.0000   1.0000   1.0000   1.0000   1.0000   1.0000   1.0000   1.0000
     1.0000   1.0000   1.0000   1.0000   1.0000   1.0000   1.0000   1.0000
     1.0000   1.0000   1.0000   1.0000   1.0000   1.0000   1.0000   1.0000
     1.0000   1.0000   1.0000   1.0000   1.0000   1.0000   1.0000   1.0000
     1.0000   1.0000   1.0000   1.0000   1.0000   1.0000   1.0000   1.0000
     1.0000   1.0000   1.0000   1.0000   1.0000   1.0000   1.0000   1.0000
     1.0000   1.0000  -0.0000  -0.0000  -0.0000  -0.0000  -0.0000  -0.0000
    -0.0000  -0.0000  -0.0000  -0.0000  -0.0000  -0.0000  -0.0000  -0.0000
    -0.0000  -0.0000  -0.0000  -0.0000  -0.0000  -0.0000  -0.0000  -0.0000
    -0.0000  -0.0000  -0.0000  -0.0000

          k = 0.0000 0.0000 0.0783 (  9076 PWs)   bands (ev):

   -12.9342 -12.9298 -12.9298 -12.9249 -12.9146 -12.9146 -12.9136 -12.8936
   -12.7106 -12.7026 -12.7026 -12.6862 -12.6766 -12.6702 -12.6702 -12.6692
   -12.6263 -12.6196 -12.6196 -12.6193 -12.6126 -12.6124 -12.6124 -12.6077
   -12.5715 -12.5715 -12.5663 -12.5663 -12.5647 -12.5606 -12.5600 -12.5567
   -12.5499 -12.5491 -12.5491 -12.5478 -12.5401 -12.5401 -12.5354 -12.5239
    -9.2698  -9.0768  -8.8016  -8.8016  -8.6213  -8.6213  -8.4750  -8.3178
    -8.0480  -7.9616  -7.5756  -7.5756  -7.5147  -7.5147  -7.3044  -7.2824
    -0.8213  -0.6148  -0.0384  -0.0384   0.1642   0.1885   0.1885   0.3440
     3.6887   3.7467   4.0094   4.1834   4.5567   4.6489   4.7105   4.7105
     4.7951   4.7951   4.8979   4.9134   4.9134   4.9713   5.1478   5.1478
     5.2729   5.4132   5.6257   5.6311   6.1688   6.1775   6.2913   6.3289
     6.3731   6.3731   6.4988   6.4988   6.5323   6.5365   6.5365   6.5418
     6.6952   6.6952   7.0603   7.0603   7.1067   7.1067   7.2015   7.2445
     7.6293   7.7573   7.7804   7.8514   7.9315   8.0523   8.0654   8.1078
     8.1078   8.1178   8.1745   8.1745   8.1806   8.2902   8.2902   8.3145
     8.3145   8.3200   8.8975   8.8975   8.9346   8.9828   8.9875   8.9875
     9.7543   9.8417  10.7356  10.7389  12.2249  12.4654  12.8375  12.9104
    13.3396  13.3396  13.4625  13.4625  13.6766  13.9224  13.9819  14.2932
    15.1104  15.3265  15.3839  15.3839  15.3909  15.4696  15.6419  15.6419
    15.9135  15.9136  15.9800  16.0279

     occupation numbers 
     1.0000   1.0000   1.0000   1.0000   1.0000   1.0000   1.0000   1.0000
     1.0000   1.0000   1.0000   1.0000   1.0000   1.0000   1.0000   1.0000
     1.0000   1.0000   1.0000   1.0000   1.0000   1.0000   1.0000   1.0000
     1.0000   1.0000   1.0000   1.0000   1.0000   1.0000   1.0000   1.0000
     1.0000   1.0000   1.0000   1.0000   1.0000   1.0000   1.0000   1.0000
     1.0000   1.0000   1.0000   1.0000   1.0000   1.0000   1.0000   1.0000
     1.0000   1.0000   1.0000   1.0000   1.0000   1.0000   1.0000   1.0000
     1.0000   1.0000   1.0000   1.0000   1.0000   1.0000   1.0000   1.0000
     1.0000   1.0000   1.0000   1.0000   1.0000   1.0000   1.0000   1.0000
     1.0000   1.0000   1.0000   1.0000   1.0000   1.0000   1.0000   1.0000
     1.0000   1.0000   1.0000   1.0000   1.0000   1.0000   1.0000   1.0000
     1.0000   1.0000   1.0000   1.0000   1.0000   1.0000   1.0000   1.0000
     1.0000   1.0000   1.0000   1.0000   1.0000   1.0000   1.0000   1.0000
     1.0000   1.0000   1.0000   1.0000   1.0000   1.0000   1.0000   1.0000
     1.0000   1.0000   1.0000   1.0000   1.0000   1.0000   1.0000   1.0000
     1.0000   1.0000   1.0000   1.0000   1.0000   1.0000   1.0000   1.0000
     1.0000   1.0000  -0.0000  -0.0000  -0.0000  -0.0000  -0.0000  -0.0000
    -0.0000  -0.0000  -0.0000  -0.0000  -0.0000  -0.0000  -0.0000  -0.0000
    -0.0000  -0.0000  -0.0000  -0.0000  -0.0000  -0.0000  -0.0000  -0.0000
    -0.0000  -0.0000  -0.0000  -0.0000

          k = 0.0000 0.0131 0.0000 (  9025 PWs)   bands (ev):

   -12.9249 -12.8890 -12.8804 -12.8768 -12.8715 -12.8636 -12.8607 -12.8411
   -12.8348 -12.8072 -12.8050 -12.7705 -12.6476 -12.6405 -12.6367 -12.6352
   -12.6210 -12.6111 -12.6100 -12.6012 -12.5964 -12.5926 -12.5898 -12.5814
   -12.5784 -12.5751 -12.5742 -12.5682 -12.5662 -12.5625 -12.5505 -12.5378
   -12.5345 -12.5271 -12.5169 -12.5162 -12.5136 -12.5123 -12.5117 -12.4885
    -9.7568  -9.2859  -9.2529  -8.8910  -8.3225  -8.2782  -7.9171  -7.8390
    -7.8378  -7.8119  -7.7846  -7.6134  -7.4967  -7.4854  -7.4320  -7.4274
    -1.3912  -0.7740  -0.7459  -0.5434   0.0999   0.7187   0.8370   0.8607
     3.3538   3.7870   4.1427   4.1908   4.2336   4.5560   4.6268   4.6575
     4.6904   4.7611   4.8067   4.9481   4.9515   5.0601   5.0893   5.1504
     5.4821   5.5649   5.6149   5.8618   5.9708   6.0140   6.1262   6.2050
     6.2608   6.4610   6.5904   6.6159   6.6262   6.8127   6.9118   6.9168
     6.9808   6.9945   7.0140   7.0178   7.0722   7.1459   7.1513   7.2237
     7.2769   7.4673   7.4954   7.5480   7.6882   7.7882   7.8408   7.9557
     8.0584   8.1232   8.1572   8.1668   8.2932   8.3261   8.5687   8.5716
     8.7834   8.7958   8.8492   8.8592   8.9136   9.1027   9.1705   9.1965
    10.0157  10.4448  10.5745  10.6252  11.7102  12.1929  12.6546  12.9550
    13.2913  13.3198  13.3318  13.7048  14.2758  14.3386  14.3907  14.4406
    14.5277  14.5711  14.6527  14.9042  15.0808  15.0864  15.4529  15.5675
    15.7475  15.8138  15.8480  15.9537

     occupation numbers 
     1.0000   1.0000   1.0000   1.0000   1.0000   1.0000   1.0000   1.0000
     1.0000   1.0000   1.0000   1.0000   1.0000   1.0000   1.0000   1.0000
     1.0000   1.0000   1.0000   1.0000   1.0000   1.0000   1.0000   1.0000
     1.0000   1.0000   1.0000   1.0000   1.0000   1.0000   1.0000   1.0000
     1.0000   1.0000   1.0000   1.0000   1.0000   1.0000   1.0000   1.0000
     1.0000   1.0000   1.0000   1.0000   1.0000   1.0000   1.0000   1.0000
     1.0000   1.0000   1.0000   1.0000   1.0000   1.0000   1.0000   1.0000
     1.0000   1.0000   1.0000   1.0000   1.0000   1.0000   1.0000   1.0000
     1.0000   1.0000   1.0000   1.0000   1.0000   1.0000   1.0000   1.0000
     1.0000   1.0000   1.0000   1.0000   1.0000   1.0000   1.0000   1.0000
     1.0000   1.0000   1.0000   1.0000   1.0000   1.0000   1.0000   1.0000
     1.0000   1.0000   1.0000   1.0000   1.0000   1.0000   1.0000   1.0000
     1.0000   1.0000   1.0000   1.0000   1.0000   1.0000   1.0000   1.0000
     1.0000   1.0000   1.0000   1.0000   1.0000   1.0000   1.0000   1.0000
     1.0000   1.0000   1.0000   1.0000   1.0000   1.0000   1.0000   1.0000
     1.0000   1.0000   1.0000   1.0000   1.0000   1.0000   1.0000   1.0000
     1.0000  -0.0315  -0.0000  -0.0000  -0.0000  -0.0000  -0.0000  -0.0000
    -0.0000  -0.0000  -0.0000  -0.0000  -0.0000  -0.0000  -0.0000  -0.0000
    -0.0000  -0.0000  -0.0000  -0.0000  -0.0000  -0.0000  -0.0000  -0.0000
    -0.0000  -0.0000  -0.0000  -0.0000

          k = 0.0000 0.0131 0.0157 (  9031 PWs)   bands (ev):

   -12.9314 -12.9058 -12.9047 -12.8967 -12.8535 -12.8522 -12.8489 -12.8321
   -12.8248 -12.8129 -12.8061 -12.7825 -12.6476 -12.6355 -12.6349 -12.6222
   -12.6173 -12.6160 -12.6146 -12.6056 -12.6024 -12.5974 -12.5944 -12.5813
   -12.5802 -12.5767 -12.5724 -12.5714 -12.5624 -12.5570 -12.5526 -12.5371
   -12.5337 -12.5270 -12.5240 -12.5223 -12.5162 -12.5147 -12.5102 -12.4896
    -9.7357  -9.2664  -9.2333  -8.8742  -8.3334  -8.3076  -7.9594  -7.9135
    -7.8124  -7.8088  -7.7748  -7.6827  -7.4806  -7.4693  -7.4210  -7.3882
    -1.3643  -0.7396  -0.7113  -0.5051   0.0644   0.7067   0.8051   0.8294
     3.3867   3.7703   4.1471   4.2160   4.2228   4.5256   4.6536   4.6700
     4.6752   4.7666   4.8171   4.8897   4.9565   5.0742   5.1173   5.2056
     5.4904   5.5967   5.6462   5.8364   5.9196   6.0099   6.0167   6.1915
     6.2876   6.4995   6.5882   6.6072   6.6646   6.8291   6.8521   6.9004
     6.9006   6.9500   7.0503   7.0624   7.1054   7.1368   7.1672   7.2242
     7.2778   7.3729   7.5133   7.6184   7.7164   7.8033   7.8510   7.9592
     8.0679   8.1157   8.1637   8.1714   8.2990   8.3305   8.5568   8.5592
     8.7563   8.7723   8.7842   8.8881   8.9038   9.0980   9.1699   9.1944
     9.9813  10.3876  10.6073  10.6361  11.7166  12.2640  12.6976  12.9202
    13.2511  13.3050  13.3421  13.8070  14.2273  14.2366  14.2386  14.4304
    14.5169  14.6046  14.6112  15.0509  15.1415  15.2511  15.5566  15.5854
    15.7289  15.8083  15.8303  15.9328

     occupation numbers 
     1.0000   1.0000   1.0000   1.0000   1.0000   1.0000   1.0000   1.0000
     1.0000   1.0000   1.0000   1.0000   1.0000   1.0000   1.0000   1.0000
     1.0000   1.0000   1.0000   1.0000   1.0000   1.0000   1.0000   1.0000
     1.0000   1.0000   1.0000   1.0000   1.0000   1.0000   1.0000   1.0000
     1.0000   1.0000   1.0000   1.0000   1.0000   1.0000   1.0000   1.0000
     1.0000   1.0000   1.0000   1.0000   1.0000   1.0000   1.0000   1.0000
     1.0000   1.0000   1.0000   1.0000   1.0000   1.0000   1.0000   1.0000
     1.0000   1.0000   1.0000   1.0000   1.0000   1.0000   1.0000   1.0000
     1.0000   1.0000   1.0000   1.0000   1.0000   1.0000   1.0000   1.0000
     1.0000   1.0000   1.0000   1.0000   1.0000   1.0000   1.0000   1.0000
     1.0000   1.0000   1.0000   1.0000   1.0000   1.0000   1.0000   1.0000
     1.0000   1.0000   1.0000   1.0000   1.0000   1.0000   1.0000   1.0000
     1.0000   1.0000   1.0000   1.0000   1.0000   1.0000   1.0000   1.0000
     1.0000   1.0000   1.0000   1.0000   1.0000   1.0000   1.0000   1.0000
     1.0000   1.0000   1.0000   1.0000   1.0000   1.0000   1.0000   1.0000
     1.0000   1.0000   1.0000   1.0000   1.0000   1.0000   1.0000   1.0000
     1.0000   1.0000  -0.0000  -0.0000  -0.0000  -0.0000  -0.0000  -0.0000
    -0.0000  -0.0000  -0.0000  -0.0000  -0.0000  -0.0000  -0.0000  -0.0000
    -0.0000  -0.0000  -0.0000  -0.0000  -0.0000  -0.0000  -0.0000  -0.0000
    -0.0000  -0.0000  -0.0000  -0.0000

          k = 0.0000 0.0131 0.0313 (  9042 PWs)   bands (ev):

   -12.9320 -12.9261 -12.9235 -12.9205 -12.8664 -12.8452 -12.8449 -12.8107
   -12.8030 -12.8003 -12.7968 -12.7894 -12.6486 -12.6350 -12.6312 -12.6258
   -12.6195 -12.6177 -12.6117 -12.6097 -12.6003 -12.5972 -12.5946 -12.5920
   -12.5774 -12.5760 -12.5685 -12.5657 -12.5649 -12.5581 -12.5487 -12.5457
   -12.5456 -12.5344 -12.5302 -12.5245 -12.5177 -12.5166 -12.5147 -12.5093
    -9.6726  -9.2080  -9.1753  -8.8235  -8.4735  -8.2641  -8.0869  -8.0530
    -7.8252  -7.8074  -7.7685  -7.7428  -7.4571  -7.4443  -7.4018  -7.3300
    -1.2845  -0.6397  -0.6110  -0.3980  -0.0380   0.6683   0.7121   0.7385
     3.4780   3.7326   4.0727   4.2750   4.3114   4.4570   4.6386   4.6863
     4.7068   4.7996   4.8038   4.8581   4.9550   5.1027   5.1511   5.3033
     5.5266   5.6378   5.6589   5.7242   5.8594   5.9164   6.0325   6.1312
     6.3811   6.4978   6.5897   6.6061   6.6705   6.7570   6.7793   6.8209
     6.8816   6.9590   7.0146   7.0832   7.0851   7.1981   7.2009   7.2084
     7.2909   7.3090   7.5629   7.6878   7.7838   7.8477   7.8814   7.9724
     8.0932   8.1016   8.1801   8.1827   8.3101   8.3386   8.5132   8.5236
     8.6230   8.7607   8.7686   8.8346   8.8828   9.0847   9.1608   9.1807
     9.8977  10.2734  10.6546  10.6597  11.7606  12.4487  12.8252  12.8527
    13.1788  13.2684  13.3420  13.9013  13.9241  14.0076  14.2239  14.5047
    14.6073  14.7069  14.7080  15.0292  15.3616  15.5088  15.6506  15.6628
    15.6930  15.7300  15.8856  15.9027

     occupation numbers 
     1.0000   1.0000   1.0000   1.0000   1.0000   1.0000   1.0000   1.0000
     1.0000   1.0000   1.0000   1.0000   1.0000   1.0000   1.0000   1.0000
     1.0000   1.0000   1.0000   1.0000   1.0000   1.0000   1.0000   1.0000
     1.0000   1.0000   1.0000   1.0000   1.0000   1.0000   1.0000   1.0000
     1.0000   1.0000   1.0000   1.0000   1.0000   1.0000   1.0000   1.0000
     1.0000   1.0000   1.0000   1.0000   1.0000   1.0000   1.0000   1.0000
     1.0000   1.0000   1.0000   1.0000   1.0000   1.0000   1.0000   1.0000
     1.0000   1.0000   1.0000   1.0000   1.0000   1.0000   1.0000   1.0000
     1.0000   1.0000   1.0000   1.0000   1.0000   1.0000   1.0000   1.0000
     1.0000   1.0000   1.0000   1.0000   1.0000   1.0000   1.0000   1.0000
     1.0000   1.0000   1.0000   1.0000   1.0000   1.0000   1.0000   1.0000
     1.0000   1.0000   1.0000   1.0000   1.0000   1.0000   1.0000   1.0000
     1.0000   1.0000   1.0000   1.0000   1.0000   1.0000   1.0000   1.0000
     1.0000   1.0000   1.0000   1.0000   1.0000   1.0000   1.0000   1.0000
     1.0000   1.0000   1.0000   1.0000   1.0000   1.0000   1.0000   1.0000
     1.0000   1.0000   1.0000   1.0000   1.0000   1.0000   1.0000   1.0000
     1.0000   1.0000  -0.0000  -0.0000  -0.0000  -0.0000  -0.0000  -0.0000
    -0.0000  -0.0000  -0.0000  -0.0000  -0.0000  -0.0000  -0.0000  -0.0000
    -0.0000  -0.0000  -0.0000  -0.0000  -0.0000  -0.0000  -0.0000  -0.0000
    -0.0000  -0.0000  -0.0000  -0.0000

          k = 0.0000 0.0131 0.0470 (  9062 PWs)   bands (ev):

   -12.9423 -12.9401 -12.9339 -12.9322 -12.8879 -12.8661 -12.8657 -12.8363
   -12.7853 -12.7682 -12.7679 -12.7594 -12.6391 -12.6385 -12.6382 -12.6341
   -12.6253 -12.6246 -12.6194 -12.6148 -12.6113 -12.6077 -12.6041 -12.5989
   -12.5730 -12.5703 -12.5694 -12.5641 -12.5617 -12.5616 -12.5515 -12.5479
   -12.5477 -12.5421 -12.5377 -12.5347 -12.5241 -12.5238 -12.5232 -12.5167
    -9.5697  -9.1127  -9.0805  -8.7403  -8.6583  -8.2602  -8.2305  -8.1969
    -7.9876  -7.8234  -7.7172  -7.6923  -7.4539  -7.4398  -7.3736  -7.2931
    -1.1579  -0.4842  -0.4565  -0.2372  -0.1917   0.5657   0.5942   0.5978
     3.6228   3.7018   3.9645   4.3769   4.3960   4.4529   4.6011   4.6733
     4.7519   4.7629   4.8462   4.9262   4.9520   5.0709   5.1286   5.4057
     5.5289   5.5466   5.5718   5.6016   5.9340   6.0191   6.0991   6.1043
     6.4235   6.4664   6.5258   6.5617   6.5899   6.6991   6.7339   6.8265
     6.8350   6.8648   6.9668   7.0620   7.0922   7.1306   7.2120   7.2871
     7.3009   7.4630   7.6541   7.7340   7.8479   7.9158   7.9279   7.9921
     8.0783   8.1174   8.1924   8.2008   8.3198   8.3364   8.4359   8.4580
     8.4732   8.6943   8.7683   8.7813   8.8695   9.0613   9.1217   9.1363
     9.8116  10.1422  10.6846  10.6921  11.8731  12.6456  12.7961  12.9978
    13.1182  13.2366  13.3455  13.6100  13.7949  13.8304  14.3836  14.5818
    14.7772  14.8740  14.9354  15.0194  15.4661  15.5213  15.5983  15.6634
    15.7803  15.8427  15.9077  15.9199

     occupation numbers 
     1.0000   1.0000   1.0000   1.0000   1.0000   1.0000   1.0000   1.0000
     1.0000   1.0000   1.0000   1.0000   1.0000   1.0000   1.0000   1.0000
     1.0000   1.0000   1.0000   1.0000   1.0000   1.0000   1.0000   1.0000
     1.0000   1.0000   1.0000   1.0000   1.0000   1.0000   1.0000   1.0000
     1.0000   1.0000   1.0000   1.0000   1.0000   1.0000   1.0000   1.0000
     1.0000   1.0000   1.0000   1.0000   1.0000   1.0000   1.0000   1.0000
     1.0000   1.0000   1.0000   1.0000   1.0000   1.0000   1.0000   1.0000
     1.0000   1.0000   1.0000   1.0000   1.0000   1.0000   1.0000   1.0000
     1.0000   1.0000   1.0000   1.0000   1.0000   1.0000   1.0000   1.0000
     1.0000   1.0000   1.0000   1.0000   1.0000   1.0000   1.0000   1.0000
     1.0000   1.0000   1.0000   1.0000   1.0000   1.0000   1.0000   1.0000
     1.0000   1.0000   1.0000   1.0000   1.0000   1.0000   1.0000   1.0000
     1.0000   1.0000   1.0000   1.0000   1.0000   1.0000   1.0000   1.0000
     1.0000   1.0000   1.0000   1.0000   1.0000   1.0000   1.0000   1.0000
     1.0000   1.0000   1.0000   1.0000   1.0000   1.0000   1.0000   1.0000
     1.0000   1.0000   1.0000   1.0000   1.0000   1.0000   1.0000   1.0000
     1.0000   1.0000  -0.0000  -0.0000  -0.0000  -0.0000  -0.0000  -0.0000
    -0.0000  -0.0000  -0.0000  -0.0000  -0.0000  -0.0000  -0.0000  -0.0000
    -0.0000  -0.0000  -0.0000  -0.0000  -0.0000  -0.0000  -0.0000  -0.0000
    -0.0000  -0.0000  -0.0000  -0.0000

          k = 0.0000 0.0131 0.0626 (  9075 PWs)   bands (ev):

   -12.9440 -12.9386 -12.9380 -12.9294 -12.9084 -12.8939 -12.8846 -12.8613
   -12.7453 -12.7420 -12.7318 -12.7273 -12.6561 -12.6505 -12.6494 -12.6467
   -12.6276 -12.6272 -12.6209 -12.6186 -12.6159 -12.6085 -12.6066 -12.6066
   -12.5762 -12.5690 -12.5685 -12.5645 -12.5626 -12.5602 -12.5593 -12.5517
   -12.5504 -12.5482 -12.5452 -12.5375 -12.5370 -12.5356 -12.5273 -12.5184
    -9.4302  -8.9832  -8.9518  -8.8616  -8.6273  -8.4516  -8.4223  -8.1602
    -8.1138  -7.8692  -7.6534  -7.6296  -7.4771  -7.4608  -7.3411  -7.2804
    -0.9936  -0.3964  -0.2887  -0.2452  -0.0452   0.3782   0.4081   0.4889
     3.6957   3.8162   3.8603   4.2966   4.4900   4.6087   4.6240   4.6819
     4.7616   4.7972   4.8340   4.8681   4.9241   5.0656   5.1053   5.3549
     5.3822   5.5170   5.5676   5.5933   6.0609   6.1111   6.1493   6.2307
     6.4143   6.4404   6.4573   6.4858   6.5593   6.5873   6.6552   6.6986
     6.8275   6.8628   6.9424   7.0197   7.0849   7.0921   7.2299   7.2924
     7.4530   7.6345   7.7598   7.7763   7.8730   7.9796   7.9949   8.0191
     8.0729   8.1188   8.2091   8.2218   8.2873   8.3163   8.3184   8.3726
     8.3876   8.5133   8.8038   8.8198   8.8841   9.0265   9.0520   9.0615
     9.7687  10.0038  10.7018  10.7156  12.0475  12.6706  12.7752  12.9665
    13.2107  13.2418  13.4407  13.5663  13.6331  13.7464  14.3259  14.5257
    14.9737  15.0127  15.0971  15.2859  15.4525  15.5516  15.5871  15.7338
    15.8188  15.8332  15.9071  15.9222

     occupation numbers 
     1.0000   1.0000   1.0000   1.0000   1.0000   1.0000   1.0000   1.0000
     1.0000   1.0000   1.0000   1.0000   1.0000   1.0000   1.0000   1.0000
     1.0000   1.0000   1.0000   1.0000   1.0000   1.0000   1.0000   1.0000
     1.0000   1.0000   1.0000   1.0000   1.0000   1.0000   1.0000   1.0000
     1.0000   1.0000   1.0000   1.0000   1.0000   1.0000   1.0000   1.0000
     1.0000   1.0000   1.0000   1.0000   1.0000   1.0000   1.0000   1.0000
     1.0000   1.0000   1.0000   1.0000   1.0000   1.0000   1.0000   1.0000
     1.0000   1.0000   1.0000   1.0000   1.0000   1.0000   1.0000   1.0000
     1.0000   1.0000   1.0000   1.0000   1.0000   1.0000   1.0000   1.0000
     1.0000   1.0000   1.0000   1.0000   1.0000   1.0000   1.0000   1.0000
     1.0000   1.0000   1.0000   1.0000   1.0000   1.0000   1.0000   1.0000
     1.0000   1.0000   1.0000   1.0000   1.0000   1.0000   1.0000   1.0000
     1.0000   1.0000   1.0000   1.0000   1.0000   1.0000   1.0000   1.0000
     1.0000   1.0000   1.0000   1.0000   1.0000   1.0000   1.0000   1.0000
     1.0000   1.0000   1.0000   1.0000   1.0000   1.0000   1.0000   1.0000
     1.0000   1.0000   1.0000   1.0000   1.0000   1.0000   1.0000   1.0000
     1.0000   1.0000  -0.0000  -0.0000  -0.0000  -0.0000  -0.0000  -0.0000
    -0.0000  -0.0000  -0.0000  -0.0000  -0.0000  -0.0000  -0.0000  -0.0000
    -0.0000  -0.0000  -0.0000  -0.0000  -0.0000  -0.0000  -0.0000  -0.0000
    -0.0000  -0.0000  -0.0000  -0.0000

          k = 0.0000 0.0131 0.0783 (  9065 PWs)   bands (ev):

   -12.9349 -12.9326 -12.9285 -12.9234 -12.9129 -12.9107 -12.9033 -12.8924
   -12.7083 -12.7005 -12.6995 -12.6886 -12.6754 -12.6708 -12.6698 -12.6626
   -12.6231 -12.6209 -12.6201 -12.6180 -12.6179 -12.6138 -12.6051 -12.6045
   -12.5705 -12.5677 -12.5668 -12.5650 -12.5595 -12.5584 -12.5508 -12.5504
   -12.5473 -12.5439 -12.5438 -12.5422 -12.5388 -12.5363 -12.5271 -12.5216
    -9.2597  -9.0669  -8.8244  -8.7937  -8.6440  -8.6140  -8.4881  -8.3300
    -8.0247  -7.9387  -7.5853  -7.5639  -7.5234  -7.5048  -7.3100  -7.2878
    -0.8021  -0.5963  -0.0701  -0.0313   0.1231   0.1936   0.1940   0.3422
     3.7202   3.7766   4.0229   4.1915   4.5177   4.5944   4.6973   4.7086
     4.7928   4.7986   4.8913   4.9020   4.9259   4.9941   5.1133   5.1367
     5.3182   5.4386   5.6517   5.6643   6.1445   6.1448   6.2225   6.3105
     6.3563   6.3808   6.4705   6.5152   6.5319   6.5500   6.6130   6.6545
     6.6951   6.7743   6.9833   7.0147   7.0759   7.0890   7.2601   7.2856
     7.6407   7.7493   7.7654   7.8125   7.9254   8.0123   8.0214   8.1024
     8.1064   8.1170   8.1430   8.1993   8.2221   8.2405   8.3238   8.3325
     8.3378   8.3679   8.8695   8.8875   8.9182   8.9709   8.9792   8.9896
     9.7926   9.8784  10.7163  10.7219  12.2619  12.4909  12.8019  12.8708
    13.2906  13.3088  13.4146  13.4860  13.8162  13.9363  14.0817  14.2843
    15.0936  15.2082  15.2434  15.3367  15.4878  15.4921  15.6754  15.6841
    15.8653  15.9546  15.9995  15.9996

     occupation numbers 
     1.0000   1.0000   1.0000   1.0000   1.0000   1.0000   1.0000   1.0000
     1.0000   1.0000   1.0000   1.0000   1.0000   1.0000   1.0000   1.0000
     1.0000   1.0000   1.0000   1.0000   1.0000   1.0000   1.0000   1.0000
     1.0000   1.0000   1.0000   1.0000   1.0000   1.0000   1.0000   1.0000
     1.0000   1.0000   1.0000   1.0000   1.0000   1.0000   1.0000   1.0000
     1.0000   1.0000   1.0000   1.0000   1.0000   1.0000   1.0000   1.0000
     1.0000   1.0000   1.0000   1.0000   1.0000   1.0000   1.0000   1.0000
     1.0000   1.0000   1.0000   1.0000   1.0000   1.0000   1.0000   1.0000
     1.0000   1.0000   1.0000   1.0000   1.0000   1.0000   1.0000   1.0000
     1.0000   1.0000   1.0000   1.0000   1.0000   1.0000   1.0000   1.0000
     1.0000   1.0000   1.0000   1.0000   1.0000   1.0000   1.0000   1.0000
     1.0000   1.0000   1.0000   1.0000   1.0000   1.0000   1.0000   1.0000
     1.0000   1.0000   1.0000   1.0000   1.0000   1.0000   1.0000   1.0000
     1.0000   1.0000   1.0000   1.0000   1.0000   1.0000   1.0000   1.0000
     1.0000   1.0000   1.0000   1.0000   1.0000   1.0000   1.0000   1.0000
     1.0000   1.0000   1.0000   1.0000   1.0000   1.0000   1.0000   1.0000
     1.0000   1.0000  -0.0000  -0.0000  -0.0000  -0.0000  -0.0000  -0.0000
    -0.0000  -0.0000  -0.0000  -0.0000  -0.0000  -0.0000  -0.0000  -0.0000
    -0.0000  -0.0000  -0.0000  -0.0000  -0.0000  -0.0000  -0.0000  -0.0000
    -0.0000  -0.0000  -0.0000  -0.0000

          k = 0.0000 0.0262 0.0000 (  9029 PWs)   bands (ev):

   -12.9217 -12.8861 -12.8843 -12.8748 -12.8729 -12.8720 -12.8575 -12.8440
   -12.8419 -12.8122 -12.8013 -12.7742 -12.6476 -12.6403 -12.6259 -12.6250
   -12.6152 -12.6126 -12.6120 -12.6005 -12.5874 -12.5831 -12.5824 -12.5819
   -12.5780 -12.5725 -12.5716 -12.5685 -12.5643 -12.5614 -12.5486 -12.5383
   -12.5340 -12.5252 -12.5243 -12.5227 -12.5198 -12.5184 -12.5164 -12.5127
    -9.7250  -9.3499  -9.2266  -8.9358  -8.2558  -8.2558  -7.9851  -7.8703
    -7.8226  -7.7673  -7.7271  -7.6438  -7.5095  -7.4724  -7.4522  -7.4331
    -1.3445  -0.8438  -0.7356  -0.5682   0.1669   0.7366   0.7623   0.8514
     3.4135   3.8846   4.0425   4.1795   4.3137   4.4585   4.6289   4.6300
     4.6484   4.7598   4.8263   4.8625   5.0332   5.1090   5.1460   5.1545
     5.5515   5.5673   5.6210   5.7022   5.9386   6.0749   6.1402   6.1439
     6.1674   6.4753   6.4968   6.6829   6.7378   6.8380   6.8515   6.8651
     6.9545   6.9979   7.0181   7.0279   7.1438   7.1887   7.2064   7.3060
     7.3142   7.4858   7.5387   7.5562   7.6884   7.7168   7.8653   7.9086
     8.0504   8.0637   8.1730   8.2395   8.2416   8.3696   8.5350   8.5461
     8.7354   8.7817   8.8443   8.8780   8.9020   9.0545   9.1016   9.1527
    10.0960  10.4635  10.5642  10.5972  11.8959  12.3017  12.5905  12.8875
    13.1431  13.3241  13.3376  13.6557  14.1399  14.2421  14.3474  14.4204
    14.5910  14.6508  14.6730  14.7585  15.2066  15.2239  15.5137  15.5794
    15.6930  15.7566  15.9742  16.0068

     occupation numbers 
     1.0000   1.0000   1.0000   1.0000   1.0000   1.0000   1.0000   1.0000
     1.0000   1.0000   1.0000   1.0000   1.0000   1.0000   1.0000   1.0000
     1.0000   1.0000   1.0000   1.0000   1.0000   1.0000   1.0000   1.0000
     1.0000   1.0000   1.0000   1.0000   1.0000   1.0000   1.0000   1.0000
     1.0000   1.0000   1.0000   1.0000   1.0000   1.0000   1.0000   1.0000
     1.0000   1.0000   1.0000   1.0000   1.0000   1.0000   1.0000   1.0000
     1.0000   1.0000   1.0000   1.0000   1.0000   1.0000   1.0000   1.0000
     1.0000   1.0000   1.0000   1.0000   1.0000   1.0000   1.0000   1.0000
     1.0000   1.0000   1.0000   1.0000   1.0000   1.0000   1.0000   1.0000
     1.0000   1.0000   1.0000   1.0000   1.0000   1.0000   1.0000   1.0000
     1.0000   1.0000   1.0000   1.0000   1.0000   1.0000   1.0000   1.0000
     1.0000   1.0000   1.0000   1.0000   1.0000   1.0000   1.0000   1.0000
     1.0000   1.0000   1.0000   1.0000   1.0000   1.0000   1.0000   1.0000
     1.0000   1.0000   1.0000   1.0000   1.0000   1.0000   1.0000   1.0000
     1.0000   1.0000   1.0000   1.0000   1.0000   1.0000   1.0000   1.0000
     1.0000   1.0000   1.0000   1.0000   1.0000   1.0000   1.0000   1.0000
     1.0000  -0.0014  -0.0000  -0.0000  -0.0000  -0.0000  -0.0000  -0.0000
    -0.0000  -0.0000  -0.0000  -0.0000  -0.0000  -0.0000  -0.0000  -0.0000
    -0.0000  -0.0000  -0.0000  -0.0000  -0.0000  -0.0000  -0.0000  -0.0000
    -0.0000  -0.0000  -0.0000  -0.0000

          k = 0.0000 0.0262 0.0157 (  9027 PWs)   bands (ev):

   -12.9243 -12.9066 -12.9037 -12.8951 -12.8559 -12.8472 -12.8435 -12.8315
   -12.8290 -12.8162 -12.8057 -12.7845 -12.6413 -12.6285 -12.6256 -12.6231
   -12.6161 -12.6099 -12.6090 -12.6076 -12.5957 -12.5922 -12.5913 -12.5813
   -12.5770 -12.5721 -12.5721 -12.5672 -12.5636 -12.5540 -12.5493 -12.5393
   -12.5370 -12.5288 -12.5251 -12.5211 -12.5167 -12.5126 -12.5117 -12.5074
    -9.7039  -9.3301  -9.2072  -8.9183  -8.3105  -8.2412  -8.0273  -7.9049
    -7.8334  -7.7621  -7.7210  -7.7080  -7.4962  -7.4567  -7.4451  -7.3920
    -1.3166  -0.8098  -0.7009  -0.5311   0.1311   0.7222   0.7301   0.8219
     3.4435   3.8637   4.0628   4.2090   4.2752   4.4590   4.6219   4.6345
     4.6490   4.7786   4.8023   4.8675   4.9345   5.1512   5.1839   5.2411
     5.5561   5.5890   5.6311   5.7124   5.8973   6.0267   6.1103   6.1405
     6.2222   6.4911   6.5034   6.6156   6.7392   6.8011   6.8298   6.8365
     6.9444   6.9632   7.0362   7.0991   7.1513   7.1949   7.2117   7.3043
     7.3503   7.4189   7.5566   7.5858   7.7076   7.7328   7.8698   7.9042
     8.0461   8.0819   8.1762   8.2235   8.2707   8.3751   8.5372   8.5449
     8.7298   8.7578   8.7793   8.8749   8.9017   9.0615   9.0948   9.1494
    10.0646  10.4169  10.5955  10.6044  11.8967  12.3653  12.6268  12.8494
    13.1226  13.2975  13.3500  13.7590  14.1726  14.2145  14.2449  14.2813
    14.5214  14.6222  14.7700  14.9396  15.2155  15.3193  15.5703  15.5809
    15.7005  15.7948  15.8916  16.0405

     occupation numbers 
     1.0000   1.0000   1.0000   1.0000   1.0000   1.0000   1.0000   1.0000
     1.0000   1.0000   1.0000   1.0000   1.0000   1.0000   1.0000   1.0000
     1.0000   1.0000   1.0000   1.0000   1.0000   1.0000   1.0000   1.0000
     1.0000   1.0000   1.0000   1.0000   1.0000   1.0000   1.0000   1.0000
     1.0000   1.0000   1.0000   1.0000   1.0000   1.0000   1.0000   1.0000
     1.0000   1.0000   1.0000   1.0000   1.0000   1.0000   1.0000   1.0000
     1.0000   1.0000   1.0000   1.0000   1.0000   1.0000   1.0000   1.0000
     1.0000   1.0000   1.0000   1.0000   1.0000   1.0000   1.0000   1.0000
     1.0000   1.0000   1.0000   1.0000   1.0000   1.0000   1.0000   1.0000
     1.0000   1.0000   1.0000   1.0000   1.0000   1.0000   1.0000   1.0000
     1.0000   1.0000   1.0000   1.0000   1.0000   1.0000   1.0000   1.0000
     1.0000   1.0000   1.0000   1.0000   1.0000   1.0000   1.0000   1.0000
     1.0000   1.0000   1.0000   1.0000   1.0000   1.0000   1.0000   1.0000
     1.0000   1.0000   1.0000   1.0000   1.0000   1.0000   1.0000   1.0000
     1.0000   1.0000   1.0000   1.0000   1.0000   1.0000   1.0000   1.0000
     1.0000   1.0000   1.0000   1.0000   1.0000   1.0000   1.0000   1.0000
     1.0000   1.0215  -0.0000  -0.0000  -0.0000  -0.0000  -0.0000  -0.0000
    -0.0000  -0.0000  -0.0000  -0.0000  -0.0000  -0.0000  -0.0000  -0.0000
    -0.0000  -0.0000  -0.0000  -0.0000  -0.0000  -0.0000  -0.0000  -0.0000
    -0.0000  -0.0000  -0.0000  -0.0000

          k = 0.0000 0.0262 0.0313 (  9052 PWs)   bands (ev):

   -12.9344 -12.9272 -12.9240 -12.9173 -12.8706 -12.8541 -12.8466 -12.8097
[...]
     1.0000   1.0000   1.0000   1.0000   1.0000   1.0000   1.0000   1.0000
     1.0000   1.0000   1.0000   1.0000   1.0000   1.0000   1.0000   1.0000
     1.0000   1.0000   1.0000   1.0000   1.0000   1.0000   1.0000   1.0000
     1.0000   1.0003  -0.0001  -0.0000  -0.0000  -0.0000  -0.0000  -0.0000
    -0.0000  -0.0000  -0.0000  -0.0000  -0.0000  -0.0000  -0.0000  -0.0000
    -0.0000  -0.0000  -0.0000  -0.0000  -0.0000  -0.0000  -0.0000  -0.0000
    -0.0000  -0.0000  -0.0000  -0.0000

          k = 0.0524 0.0524 0.0157 (  9027 PWs)   bands (ev):

   -12.9104 -12.9021 -12.8908 -12.8892 -12.8495 -12.8483 -12.8428 -12.8417
   -12.8160 -12.8124 -12.8095 -12.8095 -12.6303 -12.6291 -12.6257 -12.6238
   -12.6140 -12.6128 -12.6016 -12.6002 -12.5888 -12.5849 -12.5845 -12.5784
   -12.5745 -12.5731 -12.5708 -12.5667 -12.5589 -12.5520 -12.5476 -12.5437
   -12.5385 -12.5342 -12.5294 -12.5270 -12.5262 -12.5232 -12.5098 -12.5057
    -9.4613  -9.4313  -9.2576  -9.2302  -8.1582  -8.1432  -7.9230  -7.9102
    -7.8239  -7.7663  -7.7348  -7.6790  -7.5126  -7.4936  -7.4665  -7.4529
    -0.9659  -0.9106  -0.8316  -0.7893   0.4809   0.5139   0.6792   0.6856
     3.9026   3.9735   4.1006   4.1628   4.2674   4.2767   4.5306   4.5530
     4.6968   4.7059   4.8637   4.8932   5.0530   5.0939   5.1069   5.1084
     5.5279   5.6090   5.6190   5.6737   5.8110   5.8560   6.1492   6.1799
     6.4779   6.5287   6.5347   6.5627   6.6374   6.6610   6.8945   6.9221
     7.0061   7.0248   7.0668   7.0691   7.2891   7.3407   7.4018   7.4203
     7.4267   7.4962   7.5075   7.5702   7.6690   7.6788   7.7088   7.7269
     8.1448   8.1553   8.3511   8.3855   8.4087   8.4250   8.4368   8.4887
     8.6025   8.6382   8.7267   8.7375   8.8324   8.8392   8.9260   8.9355
    10.3959  10.4034  10.4592  10.4810  12.6706  12.6720  12.8167  12.8292
    12.9366  13.0135  13.5304  13.6170  13.9087  13.9765  14.0085  14.0244
    14.3871  14.4251  14.7713  14.7812  15.1459  15.1993  15.4806  15.5140
    15.6979  15.7179  16.2634  16.2897

     occupation numbers 
     1.0000   1.0000   1.0000   1.0000   1.0000   1.0000   1.0000   1.0000
     1.0000   1.0000   1.0000   1.0000   1.0000   1.0000   1.0000   1.0000
     1.0000   1.0000   1.0000   1.0000   1.0000   1.0000   1.0000   1.0000
     1.0000   1.0000   1.0000   1.0000   1.0000   1.0000   1.0000   1.0000
     1.0000   1.0000   1.0000   1.0000   1.0000   1.0000   1.0000   1.0000
     1.0000   1.0000   1.0000   1.0000   1.0000   1.0000   1.0000   1.0000
     1.0000   1.0000   1.0000   1.0000   1.0000   1.0000   1.0000   1.0000
     1.0000   1.0000   1.0000   1.0000   1.0000   1.0000   1.0000   1.0000
     1.0000   1.0000   1.0000   1.0000   1.0000   1.0000   1.0000   1.0000
     1.0000   1.0000   1.0000   1.0000   1.0000   1.0000   1.0000   1.0000
     1.0000   1.0000   1.0000   1.0000   1.0000   1.0000   1.0000   1.0000
     1.0000   1.0000   1.0000   1.0000   1.0000   1.0000   1.0000   1.0000
     1.0000   1.0000   1.0000   1.0000   1.0000   1.0000   1.0000   1.0000
     1.0000   1.0000   1.0000   1.0000   1.0000   1.0000   1.0000   1.0000
     1.0000   1.0000   1.0000   1.0000   1.0000   1.0000   1.0000   1.0000
     1.0000   1.0000   1.0000   1.0000   1.0000   1.0000   1.0000   1.0000
     1.0011   1.0091  -0.0050  -0.0000  -0.0000  -0.0000  -0.0000  -0.0000
    -0.0000  -0.0000  -0.0000  -0.0000  -0.0000  -0.0000  -0.0000  -0.0000
    -0.0000  -0.0000  -0.0000  -0.0000  -0.0000  -0.0000  -0.0000  -0.0000
    -0.0000  -0.0000  -0.0000  -0.0000

          k = 0.0524 0.0524 0.0313 (  9048 PWs)   bands (ev):

   -12.9288 -12.9260 -12.9046 -12.9044 -12.8352 -12.8327 -12.8300 -12.8246
   -12.8184 -12.8173 -12.8090 -12.8049 -12.6313 -12.6289 -12.6260 -12.6249
   -12.6222 -12.6183 -12.6137 -12.6050 -12.6034 -12.6016 -12.5997 -12.5969
   -12.5745 -12.5704 -12.5700 -12.5660 -12.5616 -12.5578 -12.5544 -12.5517
   -12.5459 -12.5371 -12.5334 -12.5330 -12.5286 -12.5263 -12.5200 -12.5117
    -9.4012  -9.3715  -9.1992  -9.1723  -8.2794  -8.2629  -8.0582  -8.0450
    -7.7984  -7.7417  -7.7059  -7.6527  -7.4910  -7.4587  -7.4525  -7.4255
    -0.8699  -0.8092  -0.7398  -0.6927   0.3979   0.4375   0.5814   0.5949
     3.9522   4.0120   4.1677   4.2219   4.2930   4.3108   4.5143   4.5349
     4.5786   4.5980   4.8166   4.8740   5.1233   5.1457   5.1667   5.2086
     5.5200   5.5617   5.6910   5.7048   5.9558   5.9965   6.1829   6.1918
     6.2995   6.3130   6.3542   6.3778   6.5352   6.5396   6.9640   6.9821
     7.0498   7.0802   7.1360   7.1432   7.2947   7.3164   7.4125   7.4146
     7.4640   7.4694   7.4858   7.5221   7.6801   7.7096   7.8100   7.8240
     8.1586   8.1684   8.3132   8.3363   8.3643   8.3956   8.4395   8.5069
     8.6046   8.6554   8.7239   8.7263   8.7329   8.7642   8.8781   8.8865
    10.4179  10.4258  10.4299  10.4521  12.5512  12.5748  12.7628  12.7917
    12.9492  13.0017  13.6159  13.7303  13.8502  13.8576  14.3277  14.3310
    14.5783  14.6194  14.7776  14.7955  15.1092  15.1276  15.5991  15.6296
    15.7090  15.7291  16.1664  16.1847

     occupation numbers 
     1.0000   1.0000   1.0000   1.0000   1.0000   1.0000   1.0000   1.0000
     1.0000   1.0000   1.0000   1.0000   1.0000   1.0000   1.0000   1.0000
     1.0000   1.0000   1.0000   1.0000   1.0000   1.0000   1.0000   1.0000
     1.0000   1.0000   1.0000   1.0000   1.0000   1.0000   1.0000   1.0000
     1.0000   1.0000   1.0000   1.0000   1.0000   1.0000   1.0000   1.0000
     1.0000   1.0000   1.0000   1.0000   1.0000   1.0000   1.0000   1.0000
     1.0000   1.0000   1.0000   1.0000   1.0000   1.0000   1.0000   1.0000
     1.0000   1.0000   1.0000   1.0000   1.0000   1.0000   1.0000   1.0000
     1.0000   1.0000   1.0000   1.0000   1.0000   1.0000   1.0000   1.0000
     1.0000   1.0000   1.0000   1.0000   1.0000   1.0000   1.0000   1.0000
     1.0000   1.0000   1.0000   1.0000   1.0000   1.0000   1.0000   1.0000
     1.0000   1.0000   1.0000   1.0000   1.0000   1.0000   1.0000   1.0000
     1.0000   1.0000   1.0000   1.0000   1.0000   1.0000   1.0000   1.0000
     1.0000   1.0000   1.0000   1.0000   1.0000   1.0000   1.0000   1.0000
     1.0000   1.0000   1.0000   1.0000   1.0000   1.0000   1.0000   1.0000
     1.0000   1.0000   1.0000   1.0000   1.0000   1.0000   1.0000   1.0000
     1.0100   0.7509   0.5106  -0.0223  -0.0000  -0.0000  -0.0000  -0.0000
    -0.0000  -0.0000  -0.0000  -0.0000  -0.0000  -0.0000  -0.0000  -0.0000
    -0.0000  -0.0000  -0.0000  -0.0000  -0.0000  -0.0000  -0.0000  -0.0000
    -0.0000  -0.0000  -0.0000  -0.0000

          k = 0.0524 0.0524 0.0470 (  9043 PWs)   bands (ev):

   -12.9294 -12.9278 -12.9142 -12.9126 -12.8518 -12.8505 -12.8505 -12.8446
   -12.7809 -12.7764 -12.7739 -12.7725 -12.6372 -12.6371 -12.6326 -12.6301
   -12.6193 -12.6176 -12.6150 -12.6106 -12.6075 -12.6030 -12.6006 -12.5982
   -12.5702 -12.5666 -12.5627 -12.5627 -12.5568 -12.5565 -12.5516 -12.5499
   -12.5464 -12.5400 -12.5395 -12.5309 -12.5288 -12.5272 -12.5230 -12.5183
    -9.3029  -9.2741  -9.1032  -9.0772  -8.4463  -8.4268  -8.2387  -8.2230
    -7.7483  -7.6926  -7.6617  -7.6099  -7.4905  -7.4499  -7.4471  -7.4121
    -0.7206  -0.6516  -0.5976  -0.5427   0.2667   0.3159   0.4281   0.4540
     4.0279   4.0702   4.2832   4.3236   4.3508   4.3809   4.3955   4.4043
     4.6128   4.6220   4.7757   4.8394   5.1603   5.1867   5.2295   5.2482
     5.4586   5.4850   5.6797   5.6960   6.0836   6.1005   6.1527   6.1809
     6.2010   6.2299   6.2400   6.3271   6.4650   6.4903   6.9401   6.9422
     7.0846   7.1203   7.2004   7.2199   7.2921   7.3073   7.3707   7.4197
     7.4563   7.4901   7.5303   7.5571   7.6980   7.7426   7.9006   7.9251
     8.1641   8.1773   8.2279   8.2533   8.3677   8.3802   8.4597   8.4734
     8.4918   8.5198   8.6534   8.6800   8.7836   8.7937   8.8284   8.8361
    10.3962  10.4273  10.4324  10.4516  12.4831  12.5070  12.7170  12.7372
    12.9905  13.0177  13.6006  13.7031  13.9112  13.9275  14.6340  14.7118
    14.8063  14.8232  14.8593  14.8782  15.0292  15.0558  15.6300  15.6635
    15.7514  15.7771  16.1044  16.1509

     occupation numbers 
     1.0000   1.0000   1.0000   1.0000   1.0000   1.0000   1.0000   1.0000
     1.0000   1.0000   1.0000   1.0000   1.0000   1.0000   1.0000   1.0000
     1.0000   1.0000   1.0000   1.0000   1.0000   1.0000   1.0000   1.0000
     1.0000   1.0000   1.0000   1.0000   1.0000   1.0000   1.0000   1.0000
     1.0000   1.0000   1.0000   1.0000   1.0000   1.0000   1.0000   1.0000
     1.0000   1.0000   1.0000   1.0000   1.0000   1.0000   1.0000   1.0000
     1.0000   1.0000   1.0000   1.0000   1.0000   1.0000   1.0000   1.0000
     1.0000   1.0000   1.0000   1.0000   1.0000   1.0000   1.0000   1.0000
     1.0000   1.0000   1.0000   1.0000   1.0000   1.0000   1.0000   1.0000
     1.0000   1.0000   1.0000   1.0000   1.0000   1.0000   1.0000   1.0000
     1.0000   1.0000   1.0000   1.0000   1.0000   1.0000   1.0000   1.0000
     1.0000   1.0000   1.0000   1.0000   1.0000   1.0000   1.0000   1.0000
     1.0000   1.0000   1.0000   1.0000   1.0000   1.0000   1.0000   1.0000
     1.0000   1.0000   1.0000   1.0000   1.0000   1.0000   1.0000   1.0000
     1.0000   1.0000   1.0000   1.0000   1.0000   1.0000   1.0000   1.0000
     1.0000   1.0000   1.0000   1.0000   1.0000   1.0000   1.0000   1.0000
     1.0012   0.6680   0.3589  -0.0241  -0.0000  -0.0000  -0.0000  -0.0000
    -0.0000  -0.0000  -0.0000  -0.0000  -0.0000  -0.0000  -0.0000  -0.0000
    -0.0000  -0.0000  -0.0000  -0.0000  -0.0000  -0.0000  -0.0000  -0.0000
    -0.0000  -0.0000  -0.0000  -0.0000

          k = 0.0524 0.0524 0.0626 (  9052 PWs)   bands (ev):

   -12.9291 -12.9274 -12.9162 -12.9131 -12.8863 -12.8773 -12.8755 -12.8678
   -12.7420 -12.7393 -12.7376 -12.7338 -12.6591 -12.6562 -12.6506 -12.6490
   -12.6165 -12.6151 -12.6144 -12.6110 -12.6085 -12.6068 -12.6050 -12.6022
   -12.5708 -12.5670 -12.5639 -12.5635 -12.5599 -12.5568 -12.5497 -12.5488
   -12.5461 -12.5454 -12.5434 -12.5376 -12.5331 -12.5292 -12.5283 -12.5276
    -9.1702  -9.1426  -8.9727  -8.9483  -8.6345  -8.6128  -8.4347  -8.4164
    -7.6858  -7.6315  -7.6087  -7.5588  -7.5151  -7.4677  -7.4648  -7.4233
    -0.5331  -0.4524  -0.4213  -0.3550   0.0938   0.1572   0.2323   0.2746
     4.1025   4.1294   4.2902   4.3028   4.4425   4.4464   4.4708   4.5010
     4.6334   4.6586   4.7687   4.8164   5.0836   5.1403   5.2395   5.2916
     5.3045   5.3393   5.5237   5.5621   6.1283   6.1577   6.1874   6.2064
     6.2449   6.2917   6.3251   6.3796   6.4475   6.4996   6.8082   6.8210
     7.1131   7.1541   7.2430   7.2462   7.2682   7.3097   7.3110   7.3501
     7.5319   7.5466   7.6098   7.6747   7.7051   7.7760   7.9634   8.0127
     8.0738   8.1231   8.2367   8.2467   8.2993   8.3093   8.3583   8.3680
     8.4716   8.5127   8.5855   8.6246   8.7879   8.7891   8.8169   8.8235
    10.3828  10.4151  10.4289  10.4525  12.4793  12.4994  12.6575  12.6719
    13.0653  13.0926  13.4726  13.5403  14.1342  14.1372  14.6913  14.8124
    14.8667  14.9914  15.0542  15.0668  15.1605  15.1808  15.5369  15.5725
    15.8408  15.9130  15.9292  16.0167

     occupation numbers 
     1.0000   1.0000   1.0000   1.0000   1.0000   1.0000   1.0000   1.0000
     1.0000   1.0000   1.0000   1.0000   1.0000   1.0000   1.0000   1.0000
     1.0000   1.0000   1.0000   1.0000   1.0000   1.0000   1.0000   1.0000
     1.0000   1.0000   1.0000   1.0000   1.0000   1.0000   1.0000   1.0000
     1.0000   1.0000   1.0000   1.0000   1.0000   1.0000   1.0000   1.0000
     1.0000   1.0000   1.0000   1.0000   1.0000   1.0000   1.0000   1.0000
     1.0000   1.0000   1.0000   1.0000   1.0000   1.0000   1.0000   1.0000
     1.0000   1.0000   1.0000   1.0000   1.0000   1.0000   1.0000   1.0000
     1.0000   1.0000   1.0000   1.0000   1.0000   1.0000   1.0000   1.0000
     1.0000   1.0000   1.0000   1.0000   1.0000   1.0000   1.0000   1.0000
     1.0000   1.0000   1.0000   1.0000   1.0000   1.0000   1.0000   1.0000
     1.0000   1.0000   1.0000   1.0000   1.0000   1.0000   1.0000   1.0000
     1.0000   1.0000   1.0000   1.0000   1.0000   1.0000   1.0000   1.0000
     1.0000   1.0000   1.0000   1.0000   1.0000   1.0000   1.0000   1.0000
     1.0000   1.0000   1.0000   1.0000   1.0000   1.0000   1.0000   1.0000
     1.0000   1.0000   1.0000   1.0000   1.0000   1.0000   1.0000   1.0000
     1.0000   1.0326   0.5734  -0.0208  -0.0000  -0.0000  -0.0000  -0.0000
    -0.0000  -0.0000  -0.0000  -0.0000  -0.0000  -0.0000  -0.0000  -0.0000
    -0.0000  -0.0000  -0.0000  -0.0000  -0.0000  -0.0000  -0.0000  -0.0000
    -0.0000  -0.0000  -0.0000  -0.0000

          k = 0.0524 0.0524 0.0783 (  9060 PWs)   bands (ev):

   -12.9185 -12.9167 -12.9090 -12.9083 -12.9053 -12.9019 -12.8941 -12.8910
   -12.7109 -12.7086 -12.7040 -12.7023 -12.6813 -12.6772 -12.6766 -12.6733
   -12.6236 -12.6177 -12.6142 -12.6123 -12.6090 -12.6057 -12.6053 -12.6017
   -12.5711 -12.5649 -12.5648 -12.5636 -12.5608 -12.5606 -12.5569 -12.5558
   -12.5447 -12.5438 -12.5403 -12.5396 -12.5374 -12.5369 -12.5327 -12.5313
    -9.0090  -8.9828  -8.8276  -8.8120  -8.8025  -8.7898  -8.6302  -8.6093
    -7.6204  -7.5689  -7.5579  -7.5537  -7.5107  -7.5042  -7.5017  -7.4566
    -0.3246  -0.2323  -0.2258  -0.1479  -0.1036  -0.0279   0.0131   0.0715
     4.1621   4.1800   4.2175   4.2318   4.5457   4.5633   4.6104   4.6285
     4.6825   4.7419   4.8325   4.8775   4.9028   4.9581   5.0564   5.0676
     5.3266   5.3953   5.3996   5.4595   6.1868   6.2109   6.2353   6.2585
     6.3180   6.3248   6.4112   6.4272   6.5021   6.5501   6.6403   6.6642
     7.1489   7.1848   7.2053   7.2255   7.2682   7.2843   7.3045   7.3054
     7.6197   7.6201   7.6576   7.6853   7.8094   7.8446   7.9434   7.9482
     8.0812   8.0966   8.1660   8.1709   8.2763   8.2852   8.3236   8.3337
     8.4891   8.5131   8.5252   8.5603   8.7913   8.7941   8.8071   8.8130
    10.3898  10.4109  10.4219  10.4382  12.5234  12.5394  12.5906  12.6054
    13.1794  13.2194  13.3221  13.3737  14.3641  14.3792  14.5762  14.6230
    14.9616  15.0382  15.0699  15.1114  15.4584  15.4735  15.6472  15.6670
    15.7091  15.7432  15.9145  15.9273

     occupation numbers 
     1.0000   1.0000   1.0000   1.0000   1.0000   1.0000   1.0000   1.0000
     1.0000   1.0000   1.0000   1.0000   1.0000   1.0000   1.0000   1.0000
     1.0000   1.0000   1.0000   1.0000   1.0000   1.0000   1.0000   1.0000
     1.0000   1.0000   1.0000   1.0000   1.0000   1.0000   1.0000   1.0000
     1.0000   1.0000   1.0000   1.0000   1.0000   1.0000   1.0000   1.0000
     1.0000   1.0000   1.0000   1.0000   1.0000   1.0000   1.0000   1.0000
     1.0000   1.0000   1.0000   1.0000   1.0000   1.0000   1.0000   1.0000
     1.0000   1.0000   1.0000   1.0000   1.0000   1.0000   1.0000   1.0000
     1.0000   1.0000   1.0000   1.0000   1.0000   1.0000   1.0000   1.0000
     1.0000   1.0000   1.0000   1.0000   1.0000   1.0000   1.0000   1.0000
     1.0000   1.0000   1.0000   1.0000   1.0000   1.0000   1.0000   1.0000
     1.0000   1.0000   1.0000   1.0000   1.0000   1.0000   1.0000   1.0000
     1.0000   1.0000   1.0000   1.0000   1.0000   1.0000   1.0000   1.0000
     1.0000   1.0000   1.0000   1.0000   1.0000   1.0000   1.0000   1.0000
     1.0000   1.0000   1.0000   1.0000   1.0000   1.0000   1.0000   1.0000
     1.0000   1.0000   1.0000   1.0000   1.0000   1.0000   1.0000   1.0000
     1.0001   1.0315   0.9212   0.0820  -0.0000  -0.0000  -0.0000  -0.0000
    -0.0000  -0.0000  -0.0000  -0.0000  -0.0000  -0.0000  -0.0000  -0.0000
    -0.0000  -0.0000  -0.0000  -0.0000  -0.0000  -0.0000  -0.0000  -0.0000
    -0.0000  -0.0000  -0.0000  -0.0000

     the Fermi energy is    10.4301 ev

!    total energy              =   -8767.62168005 Ry
     Harris-Foulkes estimate   =   -8767.62168005 Ry
     estimated scf accuracy    <          6.1E-10 Ry

     total all-electron energy =   -360140.354958 Ry

     The total energy is the sum of the following terms:

     one-electron contribution =    -738.87000551 Ry
     hartree contribution      =     601.96817982 Ry
     xc contribution           =    -558.27726783 Ry
     ewald contribution        =   -1507.74286629 Ry
     one-center paw contrib.   =   -6564.69971766 Ry
      -> PAW hartree energy AE =      56.84130842 Ry
      -> PAW hartree energy PS =     -56.77437655 Ry
      -> PAW xc energy AE      =     -34.00133581 Ry
      -> PAW xc energy PS      =      14.76220331 Ry
      -> total E_H with PAW    =     602.03511168 Ry
      -> total E_XC with PAW   =    -577.51640033 Ry
     smearing contrib. (-TS)   =      -0.00000258 Ry

     convergence has been achieved in  12 iterations

     Writing output data file cubi2o4.save/
 
     init_run     :     10.37s CPU     10.75s WALL (       1 calls)
     electrons    :    598.12s CPU    619.90s WALL (       1 calls)

     Called by init_run:
     wfcinit      :      9.87s CPU     10.22s WALL (       1 calls)
     wfcinit:atom :      0.11s CPU      0.11s WALL (      90 calls)
     wfcinit:wfcr :      9.25s CPU      9.53s WALL (      90 calls)
     potinit      :      0.34s CPU      0.36s WALL (       1 calls)
     hinit0       :      0.09s CPU      0.09s WALL (       1 calls)

     Called by electrons:
     c_bands      :    557.31s CPU    576.65s WALL (      12 calls)
     sum_band     :     36.74s CPU     38.31s WALL (      12 calls)
     v_of_rho     :      0.08s CPU      0.09s WALL (      13 calls)
     v_h          :      0.01s CPU      0.01s WALL (      13 calls)
     v_xc         :      0.08s CPU      0.09s WALL (      13 calls)
     newd         :      0.45s CPU      0.51s WALL (      13 calls)
     PAW_pot      :      3.81s CPU      3.91s WALL (      13 calls)
     mix_rho      :      0.03s CPU      0.03s WALL (      12 calls)

     Called by c_bands:
     init_us_2    :      3.60s CPU      3.66s WALL (    2250 calls)
     cegterg      :    543.38s CPU    560.43s WALL (    1080 calls)

     Called by sum_band:
     sum_band:bec :      0.49s CPU      0.50s WALL (    1080 calls)
     addusdens    :      0.46s CPU      0.59s WALL (      12 calls)

     Called by *egterg:
     h_psi        :    179.99s CPU    186.42s WALL (    4343 calls)
     s_psi        :     21.85s CPU     21.93s WALL (    4343 calls)
     g_psi        :      0.73s CPU      0.74s WALL (    3173 calls)
     cdiaghg      :    276.40s CPU    285.31s WALL (    4253 calls)
     cegterg:over :     31.99s CPU     33.54s WALL (    3173 calls)
     cegterg:upda :     22.55s CPU     22.76s WALL (    3173 calls)
     cegterg:last :      8.91s CPU      8.97s WALL (    1080 calls)
     cdiaghg:chol :     12.55s CPU     12.89s WALL (    4253 calls)
     cdiaghg:inve :      5.16s CPU      5.19s WALL (    4253 calls)
     cdiaghg:para :     44.06s CPU     48.90s WALL (    8506 calls)

     Called by h_psi:
     h_psi:pot    :    178.24s CPU    184.64s WALL (    4343 calls)
     h_psi:calbec :     21.18s CPU     22.69s WALL (    4343 calls)
     vloc_psi     :    134.95s CPU    139.75s WALL (    4343 calls)
     add_vuspsi   :     22.07s CPU     22.17s WALL (    4343 calls)

     General routines
     calbec       :     28.54s CPU     30.56s WALL (    5423 calls)
     fft          :      0.05s CPU      0.05s WALL (     143 calls)
     ffts         :      0.00s CPU      0.00s WALL (      12 calls)
     fftw         :    145.60s CPU    150.72s WALL ( 1086512 calls)
 
     Parallel routines
     fft_scatt_xy :     12.43s CPU     12.85s WALL ( 1086667 calls)
     fft_scatt_yz :     57.49s CPU     59.53s WALL ( 1086667 calls)

     PAW routines
     PAW_pot      :      3.81s CPU      3.91s WALL (      13 calls)
     PAW_symme    :      0.01s CPU      0.01s WALL (      25 calls)
 
     PWSCF        :  10m12.60s CPU  10m42.24s WALL

 
   This run was terminated on:  12: 7:32  12May2022            

=------------------------------------------------------------------------------=
   JOB DONE.
=------------------------------------------------------------------------------=
