
     Program PWSCF v.5.3.0 starts on 28Apr2022 at 12:53: 4 

     This program is part of the open-source Quantum ESPRESSO suite
     for quantum simulation of materials; please cite
         "P. Giannozzi et al., J. Phys.:Condens. Matter 21 395502 (2009);
          URL http://www.quantum-espresso.org", 
     in publications or presentations arising from this work. More details at
     http://www.quantum-espresso.org/quote

     Parallel version (MPI), running on     1 processors
     Waiting for input...
     Reading input from standard input

     Current dimensions of program PWSCF are:
     Max number of different atomic species (ntypx) = 10
     Max number of k-points (npk) =  40000
     Max angular momentum in pseudopotentials (lmaxx) =  3

     Atomic positions and unit cell read from directory:
     /scratch/irmik/jobs/571380/out/snte.save/
 

     Subspace diagonalization in iterative solution of the eigenvalue problem:
     a serial algorithm will be used

 
     G-vector sticks info
     --------------------
     sticks:   dense  smooth     PW     G-vecs:    dense   smooth      PW
     Sum         649     649    199                10969    10969    1837
 


     bravais-lattice index     =            0
     lattice parameter (alat)  =      11.9223  a.u.
     unit-cell volume          =     423.6607 (a.u.)^3
     number of atoms/cell      =            2
     number of atomic types    =            2
     number of electrons       =        30.00
     number of Kohn-Sham states=           38
     kinetic-energy cutoff     =      33.0900  Ry
     charge density cutoff     =     132.3600  Ry
     Exchange-correlation      = PBE ( 1  4  3  4 0 0)
     Non magnetic calculation with spin-orbit


     celldm(1)=  11.922282  celldm(2)=   0.000000  celldm(3)=   0.000000
     celldm(4)=   0.000000  celldm(5)=   0.000000  celldm(6)=   0.000000

     crystal axes: (cart. coord. in units of alat)
               a(1) = (   0.000000   0.500000   0.500000 )  
               a(2) = (   0.500000   0.000000   0.500000 )  
               a(3) = (   0.500000   0.500000   0.000000 )  

     reciprocal axes: (cart. coord. in units 2 pi/alat)
               b(1) = ( -1.000000  1.000000  1.000000 )  
               b(2) = (  1.000000 -1.000000  1.000000 )  
               b(3) = (  1.000000  1.000000 -1.000000 )  


     PseudoPot. # 1 for Sn read from file:
     /scratch/irmik/jobs/571380/pseudo/Sn.upf
     MD5 check sum: 789b5e66fce167ac30fcdcb6618e706a
     Pseudo is Norm-conserving + core correction, Zval = 14.0
     Generated using ONCVPSP code by D. R. Hamann
     Using radial grid of 1668 points, 10 beta functions with: 
                l(1) =   0
                l(2) =   0
                l(3) =   1
                l(4) =   1
                l(5) =   1
                l(6) =   1
                l(7) =   2
                l(8) =   2
                l(9) =   2
               l(10) =   2

     PseudoPot. # 2 for Te read from file:
     /scratch/irmik/jobs/571380/pseudo/Te.upf
     MD5 check sum: d198e370297ac1d7edee156d0fe975c4
     Pseudo is Norm-conserving + core correction, Zval = 16.0
     Generated using ONCVPSP code by D. R. Hamann
     Using radial grid of 1324 points, 10 beta functions with: 
                l(1) =   0
                l(2) =   0
                l(3) =   1
                l(4) =   1
                l(5) =   1
                l(6) =   1
                l(7) =   2
                l(8) =   2
                l(9) =   2
               l(10) =   2

     atomic species   valence    mass     pseudopotential
        Sn            14.00   118.00000     Sn( 1.00)
        Te            16.00   128.00000     Te( 1.00)

     48 Sym. Ops., with inversion, found



   Cartesian axes

     site n.     atom                  positions (alat units)
         1           Sn  tau(   1) = (   0.0000000   0.0000000   0.0000000  )
         2           Te  tau(   2) = (   0.5000000   0.5000000   0.5000000  )

     number of k points=    61  Marzari-Vanderbilt smearing, width (Ry)=  0.0001
                       cart. coord. in units 2pi/alat
        k(    1) = (   0.0000000   1.0000000   0.0000000), wk =   0.0163934
        k(    2) = (   0.0333333   1.0000000   0.0000000), wk =   0.0163934
        k(    3) = (   0.0666667   1.0000000   0.0000000), wk =   0.0163934
        k(    4) = (   0.1000000   1.0000000  -0.0000000), wk =   0.0163934
        k(    5) = (   0.1333333   1.0000000   0.0000000), wk =   0.0163934
        k(    6) = (   0.1666667   1.0000000   0.0000000), wk =   0.0163934
        k(    7) = (   0.2000000   1.0000000   0.0000000), wk =   0.0163934
        k(    8) = (   0.2333333   1.0000000  -0.0000000), wk =   0.0163934
        k(    9) = (   0.2666667   1.0000000   0.0000000), wk =   0.0163934
        k(   10) = (   0.3000000   1.0000000   0.0000000), wk =   0.0163934
        k(   11) = (   0.3333333   1.0000000   0.0000000), wk =   0.0163934
        k(   12) = (   0.3666667   1.0000000  -0.0000000), wk =   0.0163934
        k(   13) = (   0.4000000   1.0000000   0.0000000), wk =   0.0163934
        k(   14) = (   0.4333333   1.0000000   0.0000000), wk =   0.0163934
        k(   15) = (   0.4666667   1.0000000  -0.0000000), wk =   0.0163934
        k(   16) = (   0.5000000   1.0000000  -0.0000000), wk =   0.0163934
        k(   17) = (   0.5000000   0.9666667   0.0333333), wk =   0.0163934
        k(   18) = (   0.5000000   0.9333333   0.0666667), wk =   0.0163934
        k(   19) = (   0.5000000   0.9000000   0.1000000), wk =   0.0163934
        k(   20) = (   0.5000000   0.8666667   0.1333333), wk =   0.0163934
        k(   21) = (   0.5000000   0.8333333   0.1666667), wk =   0.0163934
        k(   22) = (   0.5000000   0.8000000   0.2000000), wk =   0.0163934
        k(   23) = (   0.5000000   0.7666667   0.2333333), wk =   0.0163934
        k(   24) = (   0.5000000   0.7333333   0.2666667), wk =   0.0163934
        k(   25) = (   0.5000000   0.7000000   0.3000000), wk =   0.0163934
        k(   26) = (   0.5000000   0.6666667   0.3333333), wk =   0.0163934
        k(   27) = (   0.5000000   0.6333333   0.3666667), wk =   0.0163934
        k(   28) = (   0.5000000   0.6000000   0.4000000), wk =   0.0163934
        k(   29) = (   0.5000000   0.5666667   0.4333333), wk =   0.0163934
        k(   30) = (   0.5000000   0.5333333   0.4666667), wk =   0.0163934
        k(   31) = (   0.5000000   0.5000000   0.5000000), wk =   0.0163934
        k(   32) = (   0.4666667   0.4666667   0.4666667), wk =   0.0163934
        k(   33) = (   0.4333333   0.4333333   0.4333333), wk =   0.0163934
        k(   34) = (   0.4000000   0.4000000   0.4000000), wk =   0.0163934
        k(   35) = (   0.3666667   0.3666667   0.3666667), wk =   0.0163934
        k(   36) = (   0.3333333   0.3333333   0.3333333), wk =   0.0163934
        k(   37) = (   0.3000000   0.3000000   0.3000000), wk =   0.0163934
        k(   38) = (   0.2666667   0.2666667   0.2666667), wk =   0.0163934
        k(   39) = (   0.2333333   0.2333333   0.2333333), wk =   0.0163934
        k(   40) = (   0.2000000   0.2000000   0.2000000), wk =   0.0163934
        k(   41) = (   0.1666667   0.1666667   0.1666667), wk =   0.0163934
        k(   42) = (   0.1333333   0.1333333   0.1333333), wk =   0.0163934
        k(   43) = (   0.1000000   0.1000000   0.1000000), wk =   0.0163934
        k(   44) = (   0.0666667   0.0666667   0.0666667), wk =   0.0163934
        k(   45) = (   0.0333333   0.0333333   0.0333333), wk =   0.0163934
        k(   46) = (   0.0000000   0.0000000   0.0000000), wk =   0.0163934
        k(   47) = (  -0.0000000   0.0666667   0.0000000), wk =   0.0163934
        k(   48) = (  -0.0000000   0.1333333   0.0000000), wk =   0.0163934
        k(   49) = (   0.0000000   0.2000000  -0.0000000), wk =   0.0163934
        k(   50) = (  -0.0000000   0.2666667   0.0000000), wk =   0.0163934
        k(   51) = (  -0.0000000   0.3333333   0.0000000), wk =   0.0163934
        k(   52) = (   0.0000000   0.4000000  -0.0000000), wk =   0.0163934
        k(   53) = (   0.0000000   0.4666667  -0.0000000), wk =   0.0163934
        k(   54) = (  -0.0000000   0.5333333   0.0000000), wk =   0.0163934
        k(   55) = (  -0.0000000   0.6000000   0.0000000), wk =   0.0163934
        k(   56) = (  -0.0000000   0.6666667   0.0000000), wk =   0.0163934
        k(   57) = (  -0.0000000   0.7333333   0.0000000), wk =   0.0163934
        k(   58) = (   0.0000000   0.8000000  -0.0000000), wk =   0.0163934
        k(   59) = (   0.0000000   0.8666667  -0.0000000), wk =   0.0163934
        k(   60) = (   0.0000000   0.9333333  -0.0000000), wk =   0.0163934
        k(   61) = (   0.0000000   1.0000000   0.0000000), wk =   0.0163934

     Dense  grid:    10969 G-vectors     FFT dimensions: (  32,  32,  32)

     Largest allocated arrays     est. size (Mb)     dimensions
        Kohn-Sham Wavefunctions         1.60 Mb     (    2762,   38)
        NL pseudopotentials             1.43 Mb     (    1381,   68)
        Each V/rho on FFT grid          0.50 Mb     (   32768)
        Each G-vector array             0.08 Mb     (   10969)
        G-vector shells                 0.00 Mb     (     161)
     Largest temporary arrays     est. size (Mb)     dimensions
        Auxiliary wavefunctions         6.41 Mb     (    2762,  152)
        Each subspace H/S matrix        0.35 Mb     (     152,  152)
        Each <psi_i|beta_j> matrix      0.08 Mb     (      68,   2,   38)

     The potential is recalculated from file :
     /scratch/irmik/jobs/571380/out/snte.save/charge-density.dat

     Starting wfc are   36 randomized atomic wfcs +    2 random wfc

     Band Structure Calculation
     Davidson diagonalization with overlap

     ethr =  3.33E-11,  avg # of iterations = 17.6

     total cpu time spent up to now is       57.2 secs

     End of band structure calculation

          k = 0.0000 1.0000 0.0000 (  1362 PWs)   bands (ev):

   -27.1458 -27.1458 -27.0946 -27.0946 -25.8806 -25.8806 -25.8217 -25.8217
   -25.8112 -25.8112 -12.7260 -12.7260 -12.7168 -12.7168 -11.7978 -11.7978
   -11.7890 -11.7890 -11.7812 -11.7812  -1.2445  -1.2445   3.3387   3.3387
     4.5395   4.5395   6.1421   6.1421   6.6009   6.6009  12.5587  12.5587
    14.4323  14.4323  15.2056  15.2056  16.2540  16.2540

          k = 0.0333 1.0000 0.0000 (  1362 PWs)   bands (ev):

   -27.1448 -27.1448 -27.0938 -27.0938 -25.8797 -25.8797 -25.8209 -25.8209
   -25.8105 -25.8105 -12.7254 -12.7254 -12.7163 -12.7163 -11.7972 -11.7972
   -11.7885 -11.7885 -11.7807 -11.7807  -1.2436  -1.2436   3.3258   3.3258
     4.5432   4.5432   6.1504   6.1504   6.6094   6.6094  12.5731  12.5731
    14.4130  14.4130  15.1836  15.1836  16.2467  16.2467

          k = 0.0667 1.0000 0.0000 (  1358 PWs)   bands (ev):

   -27.1059 -27.1059 -27.0320 -27.0320 -25.8324 -25.8324 -25.8111 -25.8111
   -25.7169 -25.7169 -12.7070 -12.7070 -12.6722 -12.6722 -11.7851 -11.7851
   -11.7676 -11.7676 -11.7170 -11.7170  -1.2410  -1.2410   3.2887   3.2887
     4.5541   4.5541   6.1684   6.1684   6.6408   6.6408  12.6167  12.6167
    14.3480  14.3480  15.1298  15.1298  16.2253  16.2253

          k = 0.1000 1.0000-0.0000 (  1358 PWs)   bands (ev):

   -27.1028 -27.1028 -27.0291 -27.0291 -25.8292 -25.8292 -25.8078 -25.8078
   -25.7152 -25.7152 -12.7054 -12.7054 -12.6701 -12.6701 -11.7830 -11.7830
   -11.7658 -11.7658 -11.7160 -11.7160  -1.2366  -1.2366   3.2311   3.2311
     4.5723   4.5723   6.1791   6.1791   6.7089   6.7089  12.6874  12.6874
    14.2217  14.2217  15.0733  15.0733  16.1902  16.1902

          k = 0.1333 1.0000 0.0000 (  1352 PWs)   bands (ev):

   -27.0486 -27.0486 -26.9247 -26.9247 -25.7919 -25.7919 -25.7288 -25.7288
   -25.5817 -25.5817 -12.6792 -12.6792 -12.6057 -12.6057 -11.7664 -11.7664
   -11.7202 -11.7202 -11.6386 -11.6386  -1.2303  -1.2303   3.1584   3.1584
     4.5976   4.5976   6.1682   6.1682   6.8235   6.8235  12.7839  12.7839
    14.0272  14.0272  15.0401  15.0401  16.1424  16.1424

          k = 0.1667 1.0000 0.0000 (  1364 PWs)   bands (ev):

   -27.1666 -27.1666 -27.0940 -27.0940 -25.8967 -25.8967 -25.8503 -25.8503
   -25.7923 -25.7923 -12.7533 -12.7533 -12.7085 -12.7085 -11.8321 -11.8321
   -11.7991 -11.7991 -11.7569 -11.7569  -1.2240  -1.2240   3.0756   3.0756
     4.6296   4.6296   6.1334   6.1334   6.9829   6.9829  12.8921  12.8921
    13.7705  13.7705  15.0357  15.0357  16.0818  16.0818

          k = 0.2000 1.0000 0.0000 (  1358 PWs)   bands (ev):

   -27.1143 -27.1143 -26.9957 -26.9957 -25.8357 -25.8357 -25.8014 -25.8014
   -25.6713 -25.6713 -12.7167 -12.7167 -12.6560 -12.6560 -11.7934 -11.7934
   -11.7620 -11.7620 -11.7003 -11.7003  -1.2148  -1.2148   2.9899   2.9899
     4.6685   4.6685   6.0797   6.0797   7.1794   7.1794  13.0320  13.0320
    13.4732  13.4732  15.0571  15.0571  16.0105  16.0105

          k = 0.2333 1.0000-0.0000 (  1362 PWs)   bands (ev):

   -27.1400 -27.1400 -27.0685 -27.0685 -25.8724 -25.8724 -25.8364 -25.8364
   -25.7454 -25.7454 -12.7333 -12.7333 -12.6977 -12.6977 -11.8154 -11.8154
   -11.7819 -11.7819 -11.7448 -11.7448  -1.2061  -1.2061   2.9029   2.9029
     4.7138   4.7138   6.0119   6.0119   7.4040   7.4040  13.0913  13.0913
    13.2450  13.2450  15.0986  15.0986  15.9278  15.9278

          k = 0.2667 1.0000 0.0000 (  1358 PWs)   bands (ev):

   -27.0593 -27.0593 -27.0469 -27.0469 -25.8376 -25.8376 -25.7503 -25.7503
   -25.7026 -25.7026 -12.6925 -12.6925 -12.6769 -12.6769 -11.7923 -11.7923
   -11.7404 -11.7404 -11.7148 -11.7148  -1.1964  -1.1964   2.8194   2.8194
     4.7653   4.7653   5.9344   5.9344   7.6504   7.6504  12.7775  12.7775
    13.3949  13.3949  15.1572  15.1572  15.8357  15.8357

          k = 0.3000 1.0000 0.0000 (  1368 PWs)   bands (ev):

   -27.2156 -27.2156 -27.1407 -27.1407 -25.9531 -25.9531 -25.9211 -25.9211
   -25.7731 -25.7731 -12.7767 -12.7767 -12.7401 -12.7401 -11.8614 -11.8614
   -11.8311 -11.8311 -11.7648 -11.7648  -1.1877  -1.1877   2.7415   2.7415
     4.8226   4.8226   5.8497   5.8497   7.9133   7.9133  12.4207  12.4207
    13.5778  13.5778  15.2301  15.2301  15.7339  15.7339

          k = 0.3333 1.0000 0.0000 (  1368 PWs)   bands (ev):

   -27.2124 -27.2124 -27.1351 -27.1351 -25.9381 -25.9381 -25.9268 -25.9268
   -25.7724 -25.7724 -12.7805 -12.7805 -12.7357 -12.7357 -11.8518 -11.8518
   -11.8440 -11.8440 -11.7629 -11.7629  -1.1791  -1.1791   2.6726   2.6726
     4.8857   4.8857   5.7610   5.7610   8.1851   8.1851  12.0712  12.0712
    13.7842  13.7842  15.3176  15.3176  15.6257  15.6257

          k = 0.3667 1.0000-0.0000 (  1360 PWs)   bands (ev):

   -27.1023 -27.1023 -27.0440 -27.0440 -25.8463 -25.8463 -25.8055 -25.8055
   -25.6782 -25.6782 -12.7150 -12.7150 -12.6822 -12.6822 -11.7999 -11.7999
   -11.7743 -11.7743 -11.7065 -11.7065  -1.1710  -1.1710   2.6142   2.6142
     4.9537   4.9537   5.6707   5.6707   8.4639   8.4639  11.7252  11.7252
    14.0117  14.0117  15.4106  15.4106  15.5226  15.5226

          k = 0.4000 1.0000 0.0000 (  1366 PWs)   bands (ev):

   -27.1975 -27.1975 -27.1066 -27.1066 -25.9355 -25.9355 -25.8971 -25.8971
   -25.7204 -25.7204 -12.7753 -12.7753 -12.7194 -12.7194 -11.8544 -11.8544
   -11.8292 -11.8292 -11.7344 -11.7344  -1.1646  -1.1646   2.5671   2.5671
     5.0257   5.0257   5.5797   5.5797   8.7372   8.7372  11.3980  11.3980
    14.2229  14.2229  15.3575  15.3575  15.5706  15.5706

          k = 0.4333 1.0000 0.0000 (  1366 PWs)   bands (ev):

   -27.1970 -27.1970 -27.1074 -27.1074 -25.9317 -25.9317 -25.9015 -25.9015
   -25.7218 -25.7218 -12.7751 -12.7751 -12.7199 -12.7199 -11.8517 -11.8517
   -11.8325 -11.8325 -11.7352 -11.7352  -1.1597  -1.1597   2.5328   2.5328
     5.0996   5.0996   5.4918   5.4918   8.9883   8.9883  11.1081  11.1081
    14.4318  14.4318  15.2234  15.2234  15.7120  15.7120

          k = 0.4667 1.0000-0.0000 (  1362 PWs)   bands (ev):

   -27.1644 -27.1644 -27.0255 -27.0255 -25.8884 -25.8884 -25.8498 -25.8498
   -25.6768 -25.6768 -12.7549 -12.7549 -12.6717 -12.6717 -11.8238 -11.8238
   -11.8029 -11.8029 -11.7052 -11.7052  -1.1565  -1.1565   2.5122   2.5122
     5.1690   5.1690   5.4137   5.4137   9.1816   9.1816  10.8920  10.8920
    14.6212  14.6212  15.0821  15.0821  15.8795  15.8795

          k = 0.5000 1.0000-0.0000 (  1348 PWs)   bands (ev):

   -26.9547 -26.9547 -26.8641 -26.8641 -25.6697 -25.6697 -25.6687 -25.6687
   -25.5631 -25.5631 -12.6307 -12.6307 -12.5776 -12.5776 -11.6992 -11.6992
   -11.6943 -11.6943 -11.6342 -11.6342  -1.1553  -1.1553   2.5052   2.5052
     5.2063   5.2063   5.3743   5.3743   9.2611   9.2611  10.8110  10.8110
    14.7331  14.7331  14.9986  14.9986  16.0213  16.0213

          k = 0.5000 0.9667 0.0333 (  1364 PWs)   bands (ev):

   -27.1826 -27.1826 -27.0624 -27.0624 -25.9216 -25.9216 -25.8556 -25.8556
   -25.7053 -25.7053 -12.7666 -12.7666 -12.6946 -12.6946 -11.8454 -11.8454
   -11.8067 -11.8067 -11.7247 -11.7247  -1.1603  -1.1603   2.4888   2.4888
     5.2316   5.2316   5.4004   5.4004   9.2549   9.2549  10.7997  10.7997
    14.7158  14.7158  14.9830  14.9830  15.9952  15.9952

          k = 0.5000 0.9333 0.0667 (  1364 PWs)   bands (ev):

   -27.1854 -27.1854 -27.0625 -27.0625 -25.9232 -25.9232 -25.8634 -25.8634
   -25.6964 -25.6964 -12.7681 -12.7681 -12.6939 -12.6939 -11.8460 -11.8460
   -11.8112 -11.8112 -11.7186 -11.7186  -1.1740  -1.1740   2.4430   2.4430
     5.3049   5.3049   5.4805   5.4805   9.2451   9.2451  10.7776  10.7776
    14.6668  14.6668  14.9425  14.9425  15.9501  15.9501

          k = 0.5000 0.9000 0.1000 (  1368 PWs)   bands (ev):

   -27.2199 -27.2199 -27.1159 -27.1159 -25.9586 -25.9586 -25.8716 -25.8716
   -25.8076 -25.8076 -12.7881 -12.7881 -12.7264 -12.7264 -11.8667 -11.8667
   -11.8159 -11.8159 -11.7808 -11.7808  -1.1969  -1.1969   2.3729   2.3729
     5.4181   5.4181   5.6149   5.6149   9.2291   9.2291  10.7418  10.7418
    14.5477  14.5477  14.8509  14.8509  15.9197  15.9197

          k = 0.5000 0.8667 0.1333 (  1368 PWs)   bands (ev):

   -27.2385 -27.2385 -27.0955 -27.0955 -25.9716 -25.9716 -25.8824 -25.8824
   -25.7858 -25.7858 -12.8000 -12.8000 -12.7142 -12.7142 -11.8750 -11.8750
   -11.8253 -11.8253 -11.7636 -11.7636  -1.2261  -1.2261   2.2873   2.2873
     5.5646   5.5646   5.7995   5.7995   9.2103   9.2103  10.6968  10.6968
    14.3266  14.3266  14.6911  14.6911  15.9344  15.9344

          k = 0.5000 0.8333 0.1667 (  1372 PWs)   bands (ev):

   -27.3090 -27.3090 -27.1310 -27.1310 -26.0493 -26.0493 -25.9131 -25.9131
   -25.8250 -25.8250 -12.8418 -12.8418 -12.7374 -12.7374 -11.9211 -11.9211
   -11.8438 -11.8438 -11.7893 -11.7893  -1.2604  -1.2604   2.1932   2.1932
     5.7419   5.7419   6.0263   6.0263   9.1888   9.1888  10.6438  10.6438
    14.0079  14.0079  14.4536  14.4536  15.9982  15.9982

          k = 0.5000 0.8000 0.2000 (  1366 PWs)   bands (ev):

   -27.2620 -27.2620 -27.0372 -27.0372 -26.0123 -26.0123 -25.8435 -25.8435
   -25.7032 -25.7032 -12.8134 -12.8134 -12.6811 -12.6811 -11.8997 -11.8997
   -11.8032 -11.8032 -11.7169 -11.7169  -1.2980  -1.2980   2.0968   2.0968
     5.9487   5.9487   6.2880   6.2880   9.1682   9.1682  10.5869  10.5869
    13.6230  13.6230  14.1439  14.1439  16.1254  16.1254

          k = 0.5000 0.7667 0.2333 (  1370 PWs)   bands (ev):

   -27.2697 -27.2697 -27.1299 -27.1299 -26.0180 -26.0180 -25.8798 -25.8798
   -25.8221 -25.8221 -12.8180 -12.8180 -12.7364 -12.7364 -11.9035 -11.9035
   -11.8235 -11.8235 -11.7868 -11.7868  -1.3373  -1.3373   2.0026   2.0026
     6.1827   6.1827   6.5763   6.5763   9.1501   9.1501  10.5273  10.5273
    13.1932  13.1932  13.7754  13.7754  16.2915  16.2915

          k = 0.5000 0.7333 0.2667 (  1372 PWs)   bands (ev):

   -27.2897 -27.2897 -27.1550 -27.1550 -26.0325 -26.0325 -25.9077 -25.9077
   -25.8455 -25.8455 -12.8314 -12.8314 -12.7533 -12.7533 -11.9142 -11.9142
   -11.8392 -11.8392 -11.8038 -11.8038  -1.3766  -1.3766   1.9138   1.9138
     6.4408   6.4408   6.8842   6.8842   9.1404   9.1404  10.4684  10.4684
    12.7434  12.7434  13.3691  13.3691  16.4913  16.4913

          k = 0.5000 0.7000 0.3000 (  1362 PWs)   bands (ev):

   -27.1461 -27.1461 -27.0484 -27.0484 -25.8947 -25.8947 -25.7723 -25.7723
   -25.7510 -25.7510 -12.7461 -12.7461 -12.6873 -12.6873 -11.8344 -11.8344
   -11.7576 -11.7576 -11.7448 -11.7448  -1.4136  -1.4136   1.8339   1.8339
     6.7204   6.7204   7.2059   7.2059   9.1447   9.1447  10.4137  10.4137
    12.2867  12.2867  12.9373  12.9373  16.7306  16.7306

          k = 0.5000 0.6667 0.3333 (  1364 PWs)   bands (ev):

   -27.1626 -27.1626 -27.0833 -27.0833 -25.9086 -25.9086 -25.8138 -25.8138
   -25.7665 -25.7665 -12.7588 -12.7588 -12.7077 -12.7077 -11.8462 -11.8462
   -11.7818 -11.7818 -11.7546 -11.7546  -1.4478  -1.4478   1.7637   1.7637
     7.0117   7.0117   7.5284   7.5284   9.1708   9.1708  10.3601  10.3601
    11.8324  11.8324  12.4902  12.4902  16.9817  16.9817

          k = 0.5000 0.6333 0.3667 (  1366 PWs)   bands (ev):

   -27.2140 -27.2140 -27.0833 -27.0833 -25.9567 -25.9567 -25.8242 -25.8242
   -25.7855 -25.7855 -12.7902 -12.7902 -12.7082 -12.7082 -11.8754 -11.8754
   -11.7890 -11.7890 -11.7653 -11.7653  -1.4775  -1.4775   1.7047   1.7047
     7.3070   7.3070   7.8410   7.8410   9.2333   9.2333  10.3083  10.3083
    11.3934  11.3934  12.0368  12.0368  17.2417  17.2417

          k = 0.5000 0.6000 0.4000 (  1364 PWs)   bands (ev):

   -27.1605 -27.1605 -27.0869 -27.0869 -25.9030 -25.9030 -25.8202 -25.8202
   -25.7839 -25.7839 -12.7591 -12.7591 -12.7107 -12.7107 -11.8440 -11.8440
   -11.7865 -11.7865 -11.7642 -11.7642  -1.5016  -1.5016   1.6579   1.6579
     7.5887   7.5887   8.1278   8.1278   9.3531   9.3531  10.2518  10.2518
    10.9930  10.9930  11.5890  11.5890  17.4968  17.4968

          k = 0.5000 0.5667 0.4333 (  1368 PWs)   bands (ev):

   -27.2658 -27.2658 -27.0988 -27.0988 -26.0215 -26.0215 -25.8494 -25.8494
   -25.7846 -25.7846 -12.8233 -12.8233 -12.7183 -12.7183 -11.9159 -11.9159
   -11.8045 -11.8045 -11.7659 -11.7659  -1.5193  -1.5193   1.6243   1.6243
     7.8248   7.8248   8.3732   8.3732   9.5435   9.5435  10.1737  10.1737
    10.6633  10.6633  11.1550  11.1550  17.7271  17.7271

          k = 0.5000 0.5333 0.4667 (  1370 PWs)   bands (ev):

   -27.2939 -27.2939 -27.1249 -27.1249 -26.0440 -26.0440 -25.8855 -25.8855
   -25.8007 -25.8007 -12.8402 -12.8402 -12.7338 -12.7338 -11.9297 -11.9297
   -11.8259 -11.8259 -11.7751 -11.7751  -1.5302  -1.5302   1.6039   1.6039
     7.9784   7.9784   8.5630   8.5630   9.7768   9.7768  10.0776  10.0776
    10.4608  10.4608  10.7761  10.7761  17.8923  17.8923

          k = 0.5000 0.5000 0.5000 (  1380 PWs)   bands (ev):

   -27.4259 -27.4259 -27.2403 -27.2403 -26.1696 -26.1696 -25.9953 -25.9953
   -25.9404 -25.9404 -12.9206 -12.9206 -12.8039 -12.8039 -12.0048 -12.0048
   -11.8920 -11.8920 -11.8594 -11.8594  -1.5339  -1.5339   1.5970   1.5970
     8.0287   8.0287   8.6424   8.6424   9.8642   9.8642  10.1155  10.1155
    10.3446  10.3446  10.5954  10.5954  17.9536  17.9536

          k = 0.4667 0.4667 0.4667 (  1371 PWs)   bands (ev):

   -27.3281 -27.3281 -27.1179 -27.1179 -26.0937 -26.0937 -25.8519 -25.8519
   -25.8171 -25.8171 -12.8606 -12.8606 -12.7295 -12.7295 -11.9586 -11.9586
   -11.8065 -11.8065 -11.7851 -11.7851  -1.5570  -1.5570   1.6360   1.6360
     8.0216   8.0216   8.6353   8.6353   9.8326   9.8326  10.1257  10.1257
    10.4068  10.4068  10.6245  10.6245  17.7388  17.7388

          k = 0.4333 0.4333 0.4333 (  1374 PWs)   bands (ev):

   -27.2734 -27.2734 -27.2350 -27.2350 -26.0146 -26.0146 -25.9530 -25.9530
   -25.9183 -25.9183 -12.8276 -12.8276 -12.8005 -12.8005 -11.9109 -11.9109
   -11.8661 -11.8661 -11.8460 -11.8460  -1.6226  -1.6226   1.7487   1.7487
     7.9960   7.9960   8.6093   8.6093   9.7510   9.7510  10.1823  10.1823
    10.5458  10.5458  10.7049  10.7049  17.3336  17.3336

          k = 0.4000 0.4000 0.4000 (  1362 PWs)   bands (ev):

   -27.1774 -27.1774 -27.0561 -27.0561 -25.9452 -25.9452 -25.7832 -25.7832
   -25.7285 -25.7285 -12.7671 -12.7671 -12.6882 -12.6882 -11.8673 -11.8673
   -11.7633 -11.7633 -11.7262 -11.7262  -1.7211  -1.7211   1.9256   1.9256
     7.9595   7.9595   8.5732   8.5732   9.6488   9.6488  10.2921  10.2921
    10.7248  10.7248  10.8339  10.8339  16.9107  16.9107

          k = 0.3667 0.3667 0.3667 (  1365 PWs)   bands (ev):

   -27.2085 -27.2085 -27.1096 -27.1096 -25.9710 -25.9710 -25.8112 -25.8112
   -25.8074 -25.8074 -12.7862 -12.7862 -12.7224 -12.7224 -11.8821 -11.8821
   -11.7814 -11.7814 -11.7774 -11.7774  -1.8412  -1.8412   2.1534   2.1534
     7.9118   7.9118   8.5269   8.5269   9.5361   9.5361  10.4434  10.4434
    10.9307  10.9307  11.0030  11.0030  16.4967  16.4967

          k = 0.3333 0.3333 0.3333 (  1362 PWs)   bands (ev):

   -27.1913 -27.1913 -27.0925 -27.0925 -25.9727 -25.9727 -25.7870 -25.7870
   -25.7499 -25.7499 -12.7749 -12.7749 -12.7101 -12.7101 -11.8820 -11.8820
   -11.7675 -11.7675 -11.7419 -11.7419  -1.9722  -1.9722   2.4204   2.4204
     7.8609   7.8609   8.4796   8.4796   9.4206   9.4206  10.6287  10.6287
    11.1587  11.1587  11.2081  11.2081  16.1263  16.1263

          k = 0.3000 0.3000 0.3000 (  1360 PWs)   bands (ev):

   -27.1863 -27.1863 -27.0577 -27.0577 -25.9576 -25.9576 -25.7595 -25.7595
   -25.7470 -25.7470 -12.7714 -12.7714 -12.6907 -12.6907 -11.8731 -11.8731
   -11.7522 -11.7522 -11.7398 -11.7398  -2.1058  -2.1058   2.7162   2.7162
     7.8091   7.8091   8.4338   8.4338   9.3014   9.3014  10.8414  10.8414
    11.4068  11.4068  11.4429  11.4429  15.8147  15.8147

          k = 0.2667 0.2667 0.2667 (  1363 PWs)   bands (ev):

   -27.2614 -27.2614 -27.0715 -27.0715 -26.0280 -26.0280 -25.7824 -25.7824
   -25.7780 -25.7780 -12.8176 -12.8176 -12.7016 -12.7016 -11.9163 -11.9163
   -11.7649 -11.7649 -11.7643 -11.7643  -2.2357  -2.2357   3.0312   3.0312
     7.7572   7.7572   8.3908   8.3908   9.1719   9.1719  11.0760  11.0760
    11.6736  11.6736  11.7023  11.7023  15.5456  15.5456

          k = 0.2333 0.2333 0.2333 (  1375 PWs)   bands (ev):

   -27.4718 -27.4718 -27.1864 -27.1864 -26.2320 -26.2320 -25.9274 -25.9274
   -25.8866 -25.8866 -12.9380 -12.9380 -12.7680 -12.7680 -12.0330 -12.0330
   -11.8483 -11.8483 -11.8291 -11.8291  -2.3574  -2.3574   3.3572   3.3572
     7.7075   7.7075   8.3539   8.3539   9.0334   9.0334  11.3230  11.3230
    11.9536  11.9536  11.9741  11.9741  15.3375  15.3375

          k = 0.2000 0.2000 0.2000 (  1369 PWs)   bands (ev):

   -27.3816 -27.3816 -27.1326 -27.1326 -26.1480 -26.1480 -25.8481 -25.8481
   -25.8427 -25.8427 -12.8799 -12.8799 -12.7337 -12.7337 -11.9783 -11.9783
   -11.8026 -11.8026 -11.7976 -11.7976  -2.4675  -2.4675   3.6860   3.6860
     7.6600   7.6600   8.3241   8.3241   8.8864   8.8864  11.5837  11.5837
    12.2479  12.2479  12.2663  12.2663  15.1929  15.1929

          k = 0.1667 0.1667 0.1667 (  1369 PWs)   bands (ev):

   -27.3704 -27.3704 -27.1365 -27.1365 -26.1304 -26.1304 -25.8737 -25.8737
   -25.8676 -25.8676 -12.8713 -12.8713 -12.7366 -12.7366 -11.9650 -11.9650
   -11.8127 -11.8127 -11.8078 -11.8078  -2.5637  -2.5637   4.0083   4.0083
     7.6119   7.6119   8.2998   8.2998   8.7341   8.7341  11.8461  11.8461
    12.5480  12.5480  12.5644  12.5644  15.1086  15.1086

          k = 0.1333 0.1333 0.1333 (  1372 PWs)   bands (ev):

   -27.4388 -27.4388 -27.1796 -27.1796 -26.1939 -26.1939 -25.9253 -25.9253
   -25.8650 -25.8650 -12.9109 -12.9109 -12.7575 -12.7575 -12.0062 -12.0062
   -11.8296 -11.8296 -11.8015 -11.8015  -2.6443  -2.6443   4.3131   4.3131
     7.5614   7.5614   8.2806   8.2806   8.5843   8.5843  12.0995  12.0995
    12.8444  12.8444  12.8577  12.8577  15.0828  15.0828

          k = 0.1000 0.1000 0.1000 (  1375 PWs)   bands (ev):

   -27.3840 -27.3840 -27.3072 -27.3072 -26.1118 -26.1118 -26.0537 -26.0537
   -25.9082 -25.9082 -12.8830 -12.8830 -12.8306 -12.8306 -11.9668 -11.9668
   -11.9069 -11.9069 -11.8258 -11.8258  -2.7081  -2.7081   4.5861   4.5861
     7.5077   7.5077   8.2662   8.2662   8.4488   8.4488  12.3306  12.3306
    13.1227  13.1227  13.1323  13.1323  15.0978  15.0978

          k = 0.0667 0.0667 0.0667 (  1381 PWs)   bands (ev):

   -27.4538 -27.4538 -27.3944 -27.3944 -26.2280 -26.2280 -26.0845 -26.0845
   -26.0013 -26.0013 -12.9206 -12.9206 -12.8889 -12.8889 -12.0349 -12.0349
   -11.9239 -11.9239 -11.8795 -11.8795  -2.7542  -2.7542   4.8083   4.8083
     7.4542   7.4542   8.2566   8.2566   8.3411   8.3411  12.5188  12.5188
    13.3583  13.3583  13.3635  13.3635  15.1494  15.1494

          k = 0.0333 0.0333 0.0333 (  1369 PWs)   bands (ev):

   -27.3192 -27.3192 -27.2256 -27.2256 -26.1236 -26.1236 -25.8628 -25.8628
   -25.8302 -25.8302 -12.8475 -12.8475 -12.7931 -12.7931 -11.9742 -11.9742
   -11.8065 -11.8065 -11.7891 -11.7891  -2.7820  -2.7820   4.9567   4.9567
     7.4114   7.4114   8.2511   8.2511   8.2726   8.2726  12.6448  12.6448
    13.5220  13.5220  13.5239  13.5239  15.2025  15.2025

          k = 0.0000 0.0000 0.0000 (  1363 PWs)   bands (ev):

   -27.2016 -27.2016 -27.2016 -27.2016 -26.0621 -26.0621 -25.7570 -25.7570
   -25.7570 -25.7570 -12.7796 -12.7796 -12.7796 -12.7796 -11.9384 -11.9384
   -11.7495 -11.7495 -11.7495 -11.7495  -2.7913  -2.7913   5.0093   5.0093
     7.3946   7.3946   8.2493   8.2493   8.2493   8.2493  12.6889  12.6889
    13.5809  13.5809  13.5809  13.5809  15.2198  15.2198

          k =-0.0000 0.0667 0.0000 (  1371 PWs)   bands (ev):

   -27.3672 -27.3672 -27.2340 -27.2340 -26.1341 -26.1341 -25.9997 -25.9997
   -25.7666 -25.7666 -12.8734 -12.8734 -12.7982 -12.7982 -11.9813 -11.9813
   -11.8785 -11.8785 -11.7553 -11.7553  -2.7789  -2.7789   4.9406   4.9406
     7.4130   7.4130   8.2244   8.2244   8.3103   8.3103  12.6202  12.6202
    13.4401  13.4401  13.5850  13.5850  15.1351  15.1351

          k =-0.0000 0.1333 0.0000 (  1379 PWs)   bands (ev):

   -27.4435 -27.4435 -27.3462 -27.3462 -26.2040 -26.2040 -26.0619 -26.0619
   -25.9601 -25.9601 -12.9162 -12.9162 -12.8610 -12.8610 -12.0214 -12.0214
   -11.9116 -11.9116 -11.8571 -11.8571  -2.7418  -2.7418   4.7610   4.7610
     7.4258   7.4258   8.1524   8.1524   8.5079   8.5079  12.3290  12.3290
    13.2200  13.2200  13.6014  13.6014  14.9010  14.9010

          k = 0.0000 0.2000-0.0000 (  1371 PWs)   bands (ev):

   -27.2773 -27.2773 -27.2496 -27.2496 -26.0209 -26.0209 -25.9760 -25.9760
   -25.9158 -25.9158 -12.8285 -12.8285 -12.8039 -12.8039 -11.9129 -11.9129
   -11.8818 -11.8818 -11.8306 -11.8306  -2.6805  -2.6805   4.5210   4.5210
     7.3837   7.3837   8.0404   8.0404   8.8309   8.8309  11.7925  11.7925
    13.1399  13.1399  13.6393  13.6393  14.6108  14.6108

          k =-0.0000 0.2667 0.0000 (  1363 PWs)   bands (ev):

   -27.2643 -27.2643 -27.0877 -27.0877 -26.0274 -26.0274 -25.8326 -25.8326
   -25.7674 -25.7674 -12.8047 -12.8047 -12.7052 -12.7052 -11.8954 -11.8954
   -11.7888 -11.7888 -11.7562 -11.7562  -2.5959  -2.5959   4.2614   4.2614
     7.2887   7.2887   7.8983   7.8983   9.1888   9.1888  11.2046  11.2046
    13.1552  13.1552  13.7057  13.7057  14.3139  14.3139

          k =-0.0000 0.3333 0.0000 (  1371 PWs)   bands (ev):

   -27.3605 -27.3605 -27.1918 -27.1918 -26.1019 -26.1019 -25.9178 -25.9178
   -25.9164 -25.9164 -12.8638 -12.8638 -12.7691 -12.7691 -11.9441 -11.9441
   -11.8379 -11.8379 -11.8372 -11.8372  -2.4895  -2.4895   4.0074   4.0074
     7.1585   7.1585   7.7355   7.7355   9.3298   9.3298  10.8809  10.8809
    13.2201  13.2201  13.8003  13.8003  14.0082  14.0082

          k = 0.0000 0.4000-0.0000 (  1351 PWs)   bands (ev):

   -27.0495 -27.0495 -27.0019 -27.0019 -25.8037 -25.8037 -25.7511 -25.7511
   -25.6301 -25.6301 -12.6756 -12.6756 -12.6540 -12.6540 -11.7645 -11.7645
   -11.7435 -11.7435 -11.6654 -11.6654  -2.3633  -2.3633   3.7738   3.7738
     7.0106   7.0106   7.5641   7.5641   8.9731   8.9731  11.1184  11.1184
    13.3224  13.3224  13.7476  13.7476  13.9263  13.9263

          k = 0.0000 0.4667-0.0000 (  1355 PWs)   bands (ev):

   -27.1341 -27.1341 -27.0301 -27.0301 -25.8778 -25.8778 -25.7784 -25.7784
   -25.6670 -25.6670 -12.7238 -12.7238 -12.6717 -12.6717 -11.8088 -11.8088
   -11.7599 -11.7599 -11.6830 -11.6830  -2.2203  -2.2203   3.5695   3.5695
     6.8547   6.8547   7.3911   7.3911   8.3629   8.3629  11.6725  11.6725
    13.4508  13.4508  13.4848  13.4848  14.0763  14.0763

          k =-0.0000 0.5333 0.0000 (  1355 PWs)   bands (ev):

   -27.1371 -27.1371 -27.0144 -27.0144 -25.8806 -25.8806 -25.7633 -25.7633
   -25.6535 -25.6535 -12.7254 -12.7254 -12.6624 -12.6624 -11.8096 -11.8096
   -11.7514 -11.7514 -11.6743 -11.6743  -2.0646  -2.0646   3.4012   3.4012
     6.6992   6.6992   7.2248   7.2248   7.7069   7.7069  12.3377  12.3377
    13.2643  13.2643  13.5997  13.5997  14.2469  14.2469

          k =-0.0000 0.6000 0.0000 (  1363 PWs)   bands (ev):

   -27.1742 -27.1742 -27.1564 -27.1564 -25.9178 -25.9178 -25.8971 -25.8971
   -25.7406 -25.7406 -12.7558 -12.7558 -12.7461 -12.7461 -11.8408 -11.8408
   -11.8314 -11.8314 -11.7212 -11.7212  -1.9014  -1.9014   3.2714   3.2714
     6.5437   6.5437   7.0706   7.0706   7.0752   7.0752  13.0418  13.0418
    13.0718  13.0718  13.7614  13.7614  14.4300  14.4300

          k =-0.0000 0.6667 0.0000 (  1351 PWs)   bands (ev):

   -27.0160 -27.0160 -26.9846 -26.9846 -25.7708 -25.7708 -25.7333 -25.7333
   -25.6055 -25.6055 -12.6508 -12.6508 -12.6488 -12.6488 -11.7411 -11.7411
   -11.7385 -11.7385 -11.6397 -11.6397  -1.7379  -1.7379   3.1911   3.1911
     6.3188   6.3188   6.5574   6.5574   6.9340   6.9340  12.9348  12.9348
    13.7671  13.7671  13.9333  13.9333  14.6176  14.6176

          k =-0.0000 0.7333 0.0000 (  1359 PWs)   bands (ev):

   -27.1000 -27.1000 -27.0756 -27.0756 -25.8524 -25.8524 -25.7822 -25.7822
   -25.7767 -25.7767 -12.7075 -12.7075 -12.7022 -12.7022 -11.8050 -11.8050
   -11.7741 -11.7741 -11.7264 -11.7264  -1.5818  -1.5818   3.1566   3.1566
     5.8408   5.8408   6.3644   6.3644   6.8169   6.8169  12.7953  12.7953
    14.0786  14.0786  14.4919  14.4919  14.7985  14.7985

          k = 0.0000 0.8000-0.0000 (  1359 PWs)   bands (ev):

   -27.0972 -27.0972 -27.0735 -27.0735 -25.8482 -25.8482 -25.7871 -25.7871
   -25.7689 -25.7689 -12.7064 -12.7064 -12.7003 -12.7003 -11.8013 -11.8013
   -11.7773 -11.7773 -11.7215 -11.7215  -1.4454  -1.4454   3.1715   3.1715
     5.3533   5.3533   6.2644   6.2644   6.7238   6.7238  12.6902  12.6902
    14.2219  14.2219  14.9613  14.9613  15.1552  15.1552

          k = 0.0000 0.8667-0.0000 (  1355 PWs)   bands (ev):

   -27.0618 -27.0618 -26.9980 -26.9980 -25.8041 -25.8041 -25.7309 -25.7309
   -25.7179 -25.7179 -12.6699 -12.6699 -12.6622 -12.6622 -11.7556 -11.7556
   -11.7439 -11.7439 -11.7011 -11.7011  -1.3378  -1.3378   3.2286   3.2286
     4.9424   4.9424   6.1964   6.1964   6.6560   6.6560  12.6206  12.6206
    14.3346  14.3346  15.0915  15.0915  15.7197  15.7197

          k = 0.0000 0.9333-0.0000 (  1358 PWs)   bands (ev):

   -27.1329 -27.1329 -27.0005 -27.0005 -25.8733 -25.8733 -25.7821 -25.7821
   -25.6951 -25.6951 -12.7180 -12.7180 -12.6614 -12.6614 -11.7952 -11.7952
   -11.7566 -11.7566 -11.7237 -11.7237  -1.2676  -1.2676   3.3027   3.3027
     4.6505   4.6505   6.1556   6.1556   6.6147   6.6147  12.5743  12.5743
    14.4072  14.4072  15.1762  15.1762  16.1115  16.1115

          k = 0.0000 1.0000 0.0000 (  1362 PWs)   bands (ev):

   -27.1458 -27.1458 -27.0946 -27.0946 -25.8806 -25.8806 -25.8217 -25.8217
   -25.8112 -25.8112 -12.7260 -12.7260 -12.7168 -12.7168 -11.7978 -11.7978
   -11.7890 -11.7890 -11.7812 -11.7812  -1.2445  -1.2445   3.3387   3.3387
     4.5395   4.5395   6.1421   6.1421   6.6009   6.6009  12.5587  12.5587
    14.4323  14.4323  15.2056  15.2056  16.2540  16.2540

     Writing output data file snte.save
 
     init_run     :      0.10s CPU      0.12s WALL (       1 calls)
     electrons    :     55.86s CPU     56.77s WALL (       1 calls)

     Called by init_run:
     wfcinit      :      0.00s CPU      0.00s WALL (       1 calls)
     potinit      :      0.02s CPU      0.03s WALL (       1 calls)

     Called by electrons:
     c_bands      :     55.86s CPU     56.76s WALL (       1 calls)
     v_of_rho     :      0.02s CPU      0.02s WALL (       1 calls)

     Called by c_bands:
     init_us_2    :      0.04s CPU      0.05s WALL (      61 calls)
     cegterg      :     50.33s CPU     50.70s WALL (      65 calls)

     Called by sum_band:

     Called by *egterg:
     h_psi        :     41.59s CPU     41.96s WALL (    1202 calls)
     g_psi        :      0.42s CPU      0.42s WALL (    1076 calls)
     cdiaghg      :      3.92s CPU      3.93s WALL (    1137 calls)

     Called by h_psi:
     add_vuspsi   :      1.30s CPU      1.30s WALL (    1202 calls)

     General routines
     calbec       :      1.19s CPU      1.20s WALL (    1202 calls)
     fft          :      0.01s CPU      0.01s WALL (      14 calls)
     fftw         :     35.09s CPU     35.44s WALL (   99432 calls)
     davcio       :      0.02s CPU      0.44s WALL (      61 calls)
 
     Parallel routines
     fft_scatter  :      3.15s CPU      3.18s WALL (   99446 calls)
 
     PWSCF        :    56.35s CPU        57.69s WALL

 
   This run was terminated on:  12:54: 2  28Apr2022            

=------------------------------------------------------------------------------=
   JOB DONE.
=------------------------------------------------------------------------------=
