
     Program BANDS v.5.3.0 starts on 28Apr2022 at 12:54: 2 

     This program is part of the open-source Quantum ESPRESSO suite
     for quantum simulation of materials; please cite
         "P. Giannozzi et al., J. Phys.:Condens. Matter 21 395502 (2009);
          URL http://www.quantum-espresso.org", 
     in publications or presentations arising from this work. More details at
     http://www.quantum-espresso.org/quote

     Parallel version (MPI), running on     1 processors

     Reading data from directory:
     /scratch/irmik/jobs/571380/out/snte.save

   Info: using nr1, nr2, nr3 values from input

   Info: using nr1, nr2, nr3 values from input

     IMPORTANT: XC functional enforced from input :
     Exchange-correlation      = PBE ( 1  4  3  4 0 0)
     Any further DFT definition will be discarded
     Please, verify this is what you really want

 
     G-vector sticks info
     --------------------
     sticks:   dense  smooth     PW     G-vecs:    dense   smooth      PW
     Sum         649     649    199                10969    10969    1837
 
     high-symmetry point:  0.0000 1.0000 0.0000   x coordinate   0.0000
     high-symmetry point:  0.5000 1.0000-0.0000   x coordinate   0.5000
     high-symmetry point:  0.5000 0.5000 0.5000   x coordinate   1.2071
     high-symmetry point:  0.0000 0.0000 0.0000   x coordinate   2.0731
     high-symmetry point:  0.0000 1.0000 0.0000   x coordinate   3.0731

     Plottable bands written to file snte.bands.dat.gnu
     Bands written to file snte.bands.dat
 
     BANDS        :     1.07s CPU         1.37s WALL

 
   This run was terminated on:  12:54: 4  28Apr2022            

=------------------------------------------------------------------------------=
   JOB DONE.
=------------------------------------------------------------------------------=
