File written on  1May2022 at 12:35:29 

calc_only_A  :  F

begin real_lattice
  -1.9091447   1.9091447   6.6030981
   1.9091447  -1.9091447   6.6030981
   1.9091447   1.9091447  -6.6030981
end real_lattice

begin recip_lattice
  -0.0000000   1.6455498   0.4757756
   1.6455498  -0.0000000   0.4757756
   1.6455498   1.6455498  -0.0000000
end recip_lattice

begin kpoints
   343
    0.00000000    0.00000000    0.00000000
    0.00000000    0.00000000    0.14285714
    0.00000000    0.00000000    0.28571429
    0.00000000    0.00000000    0.42857143
    0.00000000    0.00000000    0.57142857
    0.00000000    0.00000000    0.71428571
    0.00000000    0.00000000    0.85714286
    0.00000000    0.14285714    0.00000000
    0.00000000    0.14285714    0.14285714
    0.00000000    0.14285714    0.28571429
    0.00000000    0.14285714    0.42857143
    0.00000000    0.14285714    0.57142857
    0.00000000    0.14285714    0.71428571
    0.00000000    0.14285714    0.85714286
    0.00000000    0.28571429    0.00000000
    0.00000000    0.28571429    0.14285714
    0.00000000    0.28571429    0.28571429
    0.00000000    0.28571429    0.42857143
    0.00000000    0.28571429    0.57142857
    0.00000000    0.28571429    0.71428571
    0.00000000    0.28571429    0.85714286
    0.00000000    0.42857143    0.00000000
    0.00000000    0.42857143    0.14285714
    0.00000000    0.42857143    0.28571429
    0.00000000    0.42857143    0.42857143
    0.00000000    0.42857143    0.57142857
    0.00000000    0.42857143    0.71428571
    0.00000000    0.42857143    0.85714286
    0.00000000    0.57142857    0.00000000
    0.00000000    0.57142857    0.14285714
    0.00000000    0.57142857    0.28571429
    0.00000000    0.57142857    0.42857143
    0.00000000    0.57142857    0.57142857
    0.00000000    0.57142857    0.71428571
    0.00000000    0.57142857    0.85714286
    0.00000000    0.71428571    0.00000000
    0.00000000    0.71428571    0.14285714
    0.00000000    0.71428571    0.28571429
    0.00000000    0.71428571    0.42857143
    0.00000000    0.71428571    0.57142857
    0.00000000    0.71428571    0.71428571
    0.00000000    0.71428571    0.85714286
    0.00000000    0.85714286    0.00000000
    0.00000000    0.85714286    0.14285714
    0.00000000    0.85714286    0.28571429
    0.00000000    0.85714286    0.42857143
    0.00000000    0.85714286    0.57142857
    0.00000000    0.85714286    0.71428571
    0.00000000    0.85714286    0.85714286
    0.14285714    0.00000000    0.00000000
    0.14285714    0.00000000    0.14285714
    0.14285714    0.00000000    0.28571429
    0.14285714    0.00000000    0.42857143
    0.14285714    0.00000000    0.57142857
    0.14285714    0.00000000    0.71428571
    0.14285714    0.00000000    0.85714286
    0.14285714    0.14285714    0.00000000
    0.14285714    0.14285714    0.14285714
    0.14285714    0.14285714    0.28571429
    0.14285714    0.14285714    0.42857143
    0.14285714    0.14285714    0.57142857
    0.14285714    0.14285714    0.71428571
    0.14285714    0.14285714    0.85714286
    0.14285714    0.28571429    0.00000000
    0.14285714    0.28571429    0.14285714
    0.14285714    0.28571429    0.28571429
    0.14285714    0.28571429    0.42857143
    0.14285714    0.28571429    0.57142857
    0.14285714    0.28571429    0.71428571
    0.14285714    0.28571429    0.85714286
    0.14285714    0.42857143    0.00000000
    0.14285714    0.42857143    0.14285714
    0.14285714    0.42857143    0.28571429
    0.14285714    0.42857143    0.42857143
    0.14285714    0.42857143    0.57142857
    0.14285714    0.42857143    0.71428571
    0.14285714    0.42857143    0.85714286
    0.14285714    0.57142857    0.00000000
    0.14285714    0.57142857    0.14285714
    0.14285714    0.57142857    0.28571429
    0.14285714    0.57142857    0.42857143
    0.14285714    0.57142857    0.57142857
    0.14285714    0.57142857    0.71428571
    0.14285714    0.57142857    0.85714286
    0.14285714    0.71428571    0.00000000
    0.14285714    0.71428571    0.14285714
    0.14285714    0.71428571    0.28571429
    0.14285714    0.71428571    0.42857143
    0.14285714    0.71428571    0.57142857
    0.14285714    0.71428571    0.71428571
    0.14285714    0.71428571    0.85714286
    0.14285714    0.85714286    0.00000000
    0.14285714    0.85714286    0.14285714
    0.14285714    0.85714286    0.28571429
    0.14285714    0.85714286    0.42857143
    0.14285714    0.85714286    0.57142857
    0.14285714    0.85714286    0.71428571
    0.14285714    0.85714286    0.85714286
    0.28571429    0.00000000    0.00000000
    0.28571429    0.00000000    0.14285714
    0.28571429    0.00000000    0.28571429
    0.28571429    0.00000000    0.42857143
    0.28571429    0.00000000    0.57142857
    0.28571429    0.00000000    0.71428571
    0.28571429    0.00000000    0.85714286
    0.28571429    0.14285714    0.00000000
    0.28571429    0.14285714    0.14285714
    0.28571429    0.14285714    0.28571429
    0.28571429    0.14285714    0.42857143
    0.28571429    0.14285714    0.57142857
    0.28571429    0.14285714    0.71428571
    0.28571429    0.14285714    0.85714286
    0.28571429    0.28571429    0.00000000
    0.28571429    0.28571429    0.14285714
    0.28571429    0.28571429    0.28571429
    0.28571429    0.28571429    0.42857143
    0.28571429    0.28571429    0.57142857
    0.28571429    0.28571429    0.71428571
    0.28571429    0.28571429    0.85714286
    0.28571429    0.42857143    0.00000000
    0.28571429    0.42857143    0.14285714
    0.28571429    0.42857143    0.28571429
    0.28571429    0.42857143    0.42857143
    0.28571429    0.42857143    0.57142857
    0.28571429    0.42857143    0.71428571
    0.28571429    0.42857143    0.85714286
    0.28571429    0.57142857    0.00000000
    0.28571429    0.57142857    0.14285714
    0.28571429    0.57142857    0.28571429
    0.28571429    0.57142857    0.42857143
    0.28571429    0.57142857    0.57142857
    0.28571429    0.57142857    0.71428571
    0.28571429    0.57142857    0.85714286
    0.28571429    0.71428571    0.00000000
    0.28571429    0.71428571    0.14285714
    0.28571429    0.71428571    0.28571429
    0.28571429    0.71428571    0.42857143
    0.28571429    0.71428571    0.57142857
    0.28571429    0.71428571    0.71428571
    0.28571429    0.71428571    0.85714286
    0.28571429    0.85714286    0.00000000
    0.28571429    0.85714286    0.14285714
    0.28571429    0.85714286    0.28571429
    0.28571429    0.85714286    0.42857143
    0.28571429    0.85714286    0.57142857
    0.28571429    0.85714286    0.71428571
    0.28571429    0.85714286    0.85714286
    0.42857143    0.00000000    0.00000000
    0.42857143    0.00000000    0.14285714
    0.42857143    0.00000000    0.28571429
    0.42857143    0.00000000    0.42857143
    0.42857143    0.00000000    0.57142857
    0.42857143    0.00000000    0.71428571
    0.42857143    0.00000000    0.85714286
    0.42857143    0.14285714    0.00000000
    0.42857143    0.14285714    0.14285714
    0.42857143    0.14285714    0.28571429
    0.42857143    0.14285714    0.42857143
    0.42857143    0.14285714    0.57142857
    0.42857143    0.14285714    0.71428571
    0.42857143    0.14285714    0.85714286
    0.42857143    0.28571429    0.00000000
    0.42857143    0.28571429    0.14285714
    0.42857143    0.28571429    0.28571429
    0.42857143    0.28571429    0.42857143
    0.42857143    0.28571429    0.57142857
    0.42857143    0.28571429    0.71428571
    0.42857143    0.28571429    0.85714286
    0.42857143    0.42857143    0.00000000
    0.42857143    0.42857143    0.14285714
    0.42857143    0.42857143    0.28571429
    0.42857143    0.42857143    0.42857143
    0.42857143    0.42857143    0.57142857
    0.42857143    0.42857143    0.71428571
    0.42857143    0.42857143    0.85714286
    0.42857143    0.57142857    0.00000000
    0.42857143    0.57142857    0.14285714
    0.42857143    0.57142857    0.28571429
    0.42857143    0.57142857    0.42857143
    0.42857143    0.57142857    0.57142857
    0.42857143    0.57142857    0.71428571
    0.42857143    0.57142857    0.85714286
    0.42857143    0.71428571    0.00000000
    0.42857143    0.71428571    0.14285714
    0.42857143    0.71428571    0.28571429
    0.42857143    0.71428571    0.42857143
    0.42857143    0.71428571    0.57142857
    0.42857143    0.71428571    0.71428571
    0.42857143    0.71428571    0.85714286
    0.42857143    0.85714286    0.00000000
    0.42857143    0.85714286    0.14285714
    0.42857143    0.85714286    0.28571429
    0.42857143    0.85714286    0.42857143
    0.42857143    0.85714286    0.57142857
    0.42857143    0.85714286    0.71428571
    0.42857143    0.85714286    0.85714286
    0.57142857    0.00000000    0.00000000
    0.57142857    0.00000000    0.14285714
    0.57142857    0.00000000    0.28571429
    0.57142857    0.00000000    0.42857143
    0.57142857    0.00000000    0.57142857
    0.57142857    0.00000000    0.71428571
    0.57142857    0.00000000    0.85714286
    0.57142857    0.14285714    0.00000000
    0.57142857    0.14285714    0.14285714
    0.57142857    0.14285714    0.28571429
    0.57142857    0.14285714    0.42857143
    0.57142857    0.14285714    0.57142857
    0.57142857    0.14285714    0.71428571
    0.57142857    0.14285714    0.85714286
    0.57142857    0.28571429    0.00000000
    0.57142857    0.28571429    0.14285714
    0.57142857    0.28571429    0.28571429
    0.57142857    0.28571429    0.42857143
    0.57142857    0.28571429    0.57142857
    0.57142857    0.28571429    0.71428571
    0.57142857    0.28571429    0.85714286
    0.57142857    0.42857143    0.00000000
    0.57142857    0.42857143    0.14285714
    0.57142857    0.42857143    0.28571429
    0.57142857    0.42857143    0.42857143
    0.57142857    0.42857143    0.57142857
    0.57142857    0.42857143    0.71428571
    0.57142857    0.42857143    0.85714286
    0.57142857    0.57142857    0.00000000
    0.57142857    0.57142857    0.14285714
    0.57142857    0.57142857    0.28571429
    0.57142857    0.57142857    0.42857143
    0.57142857    0.57142857    0.57142857
    0.57142857    0.57142857    0.71428571
    0.57142857    0.57142857    0.85714286
    0.57142857    0.71428571    0.00000000
    0.57142857    0.71428571    0.14285714
    0.57142857    0.71428571    0.28571429
    0.57142857    0.71428571    0.42857143
    0.57142857    0.71428571    0.57142857
    0.57142857    0.71428571    0.71428571
    0.57142857    0.71428571    0.85714286
    0.57142857    0.85714286    0.00000000
    0.57142857    0.85714286    0.14285714
    0.57142857    0.85714286    0.28571429
    0.57142857    0.85714286    0.42857143
    0.57142857    0.85714286    0.57142857
    0.57142857    0.85714286    0.71428571
    0.57142857    0.85714286    0.85714286
    0.71428571    0.00000000    0.00000000
    0.71428571    0.00000000    0.14285714
    0.71428571    0.00000000    0.28571429
    0.71428571    0.00000000    0.42857143
    0.71428571    0.00000000    0.57142857
    0.71428571    0.00000000    0.71428571
    0.71428571    0.00000000    0.85714286
    0.71428571    0.14285714    0.00000000
    0.71428571    0.14285714    0.14285714
    0.71428571    0.14285714    0.28571429
    0.71428571    0.14285714    0.42857143
    0.71428571    0.14285714    0.57142857
    0.71428571    0.14285714    0.71428571
    0.71428571    0.14285714    0.85714286
    0.71428571    0.28571429    0.00000000
    0.71428571    0.28571429    0.14285714
    0.71428571    0.28571429    0.28571429
    0.71428571    0.28571429    0.42857143
    0.71428571    0.28571429    0.57142857
    0.71428571    0.28571429    0.71428571
    0.71428571    0.28571429    0.85714286
    0.71428571    0.42857143    0.00000000
    0.71428571    0.42857143    0.14285714
    0.71428571    0.42857143    0.28571429
    0.71428571    0.42857143    0.42857143
    0.71428571    0.42857143    0.57142857
    0.71428571    0.42857143    0.71428571
    0.71428571    0.42857143    0.85714286
    0.71428571    0.57142857    0.00000000
    0.71428571    0.57142857    0.14285714
    0.71428571    0.57142857    0.28571429
    0.71428571    0.57142857    0.42857143
    0.71428571    0.57142857    0.57142857
    0.71428571    0.57142857    0.71428571
    0.71428571    0.57142857    0.85714286
    0.71428571    0.71428571    0.00000000
    0.71428571    0.71428571    0.14285714
    0.71428571    0.71428571    0.28571429
    0.71428571    0.71428571    0.42857143
    0.71428571    0.71428571    0.57142857
    0.71428571    0.71428571    0.71428571
    0.71428571    0.71428571    0.85714286
    0.71428571    0.85714286    0.00000000
    0.71428571    0.85714286    0.14285714
    0.71428571    0.85714286    0.28571429
    0.71428571    0.85714286    0.42857143
    0.71428571    0.85714286    0.57142857
    0.71428571    0.85714286    0.71428571
    0.71428571    0.85714286    0.85714286
    0.85714286    0.00000000    0.00000000
    0.85714286    0.00000000    0.14285714
    0.85714286    0.00000000    0.28571429
    0.85714286    0.00000000    0.42857143
    0.85714286    0.00000000    0.57142857
    0.85714286    0.00000000    0.71428571
    0.85714286    0.00000000    0.85714286
    0.85714286    0.14285714    0.00000000
    0.85714286    0.14285714    0.14285714
    0.85714286    0.14285714    0.28571429
    0.85714286    0.14285714    0.42857143
    0.85714286    0.14285714    0.57142857
    0.85714286    0.14285714    0.71428571
    0.85714286    0.14285714    0.85714286
    0.85714286    0.28571429    0.00000000
    0.85714286    0.28571429    0.14285714
    0.85714286    0.28571429    0.28571429
    0.85714286    0.28571429    0.42857143
    0.85714286    0.28571429    0.57142857
    0.85714286    0.28571429    0.71428571
    0.85714286    0.28571429    0.85714286
    0.85714286    0.42857143    0.00000000
    0.85714286    0.42857143    0.14285714
    0.85714286    0.42857143    0.28571429
    0.85714286    0.42857143    0.42857143
    0.85714286    0.42857143    0.57142857
    0.85714286    0.42857143    0.71428571
    0.85714286    0.42857143    0.85714286
    0.85714286    0.57142857    0.00000000
    0.85714286    0.57142857    0.14285714
    0.85714286    0.57142857    0.28571429
    0.85714286    0.57142857    0.42857143
    0.85714286    0.57142857    0.57142857
    0.85714286    0.57142857    0.71428571
    0.85714286    0.57142857    0.85714286
    0.85714286    0.71428571    0.00000000
    0.85714286    0.71428571    0.14285714
    0.85714286    0.71428571    0.28571429
    0.85714286    0.71428571    0.42857143
    0.85714286    0.71428571    0.57142857
    0.85714286    0.71428571    0.71428571
    0.85714286    0.71428571    0.85714286
    0.85714286    0.85714286    0.00000000
    0.85714286    0.85714286    0.14285714
    0.85714286    0.85714286    0.28571429
    0.85714286    0.85714286    0.42857143
    0.85714286    0.85714286    0.57142857
    0.85714286    0.85714286    0.71428571
    0.85714286    0.85714286    0.85714286
end kpoints

begin projections
     1
   0.00000    0.00000    0.00000     2  4  1
    0.0000000  0.0000000  1.0000000   1.0000000  0.0000000  0.0000000    1.00
end projections

begin nnkpts
  10
     1    63      0   0  -1
     1   338     -1  -1   0
     1     8      0   0   0
     1    50      0   0   0
     1    43      0  -1   0
     1    44      0  -1   0
     1   295     -1   0   0
     1   296     -1   0   0
     1    14      0   0  -1
     1    56      0   0  -1
     2    57      0   0   0
     2   339     -1  -1   0
     2     8      0   0   0
     2     9      0   0   0
     2    50      0   0   0
     2    51      0   0   0
     2    44      0  -1   0
     2    45      0  -1   0
     2   296     -1   0   0
     2   297     -1   0   0
     3    58      0   0   0
     3   340     -1  -1   0
     3     9      0   0   0
     3    10      0   0   0
     3    51      0   0   0
     3    52      0   0   0
     3    45      0  -1   0
     3    46      0  -1   0
     3   297     -1   0   0
     3   298     -1   0   0
     4    59      0   0   0
     4   341     -1  -1   0
     4    10      0   0   0
     4    11      0   0   0
     4    52      0   0   0
     4    53      0   0   0
     4    46      0  -1   0
     4    47      0  -1   0
     4   298     -1   0   0
     4   299     -1   0   0
     5    60      0   0   0
     5   342     -1  -1   0
     5    11      0   0   0
     5    12      0   0   0
     5    53      0   0   0
     5    54      0   0   0
     5    47      0  -1   0
     5    48      0  -1   0
     5   299     -1   0   0
     5   300     -1   0   0
     6    61      0   0   0
     6   343     -1  -1   0
     6    12      0   0   0
     6    13      0   0   0
     6    54      0   0   0
     6    55      0   0   0
     6    48      0  -1   0
     6    49      0  -1   0
     6   300     -1   0   0
     6   301     -1   0   0
     7    62      0   0   0
     7   337     -1  -1   1
     7    13      0   0   0
     7    14      0   0   0
     7    55      0   0   0
     7    56      0   0   0
     7    43      0  -1   1
     7    49      0  -1   0
     7   295     -1   0   1
     7   301     -1   0   0
     8   296     -1   0   0
     8    70      0   0  -1
     8     1      0   0   0
     8     2      0   0   0
     8    15      0   0   0
     8    57      0   0   0
     8   302     -1   0   0
     8   303     -1   0   0
     8    21      0   0  -1
     8    63      0   0  -1
     9    64      0   0   0
     9   297     -1   0   0
     9     2      0   0   0
     9     3      0   0   0
     9    15      0   0   0
     9    16      0   0   0
     9    57      0   0   0
     9    58      0   0   0
     9   303     -1   0   0
     9   304     -1   0   0
    10    65      0   0   0
    10   298     -1   0   0
    10     3      0   0   0
    10     4      0   0   0
    10    16      0   0   0
    10    17      0   0   0
    10    58      0   0   0
    10    59      0   0   0
    10   304     -1   0   0
    10   305     -1   0   0
    11    66      0   0   0
    11   299     -1   0   0
    11     4      0   0   0
    11     5      0   0   0
    11    17      0   0   0
    11    18      0   0   0
    11    59      0   0   0
    11    60      0   0   0
    11   305     -1   0   0
    11   306     -1   0   0
    12    67      0   0   0
    12   300     -1   0   0
    12     5      0   0   0
    12     6      0   0   0
    12    18      0   0   0
    12    19      0   0   0
    12    60      0   0   0
    12    61      0   0   0
    12   306     -1   0   0
    12   307     -1   0   0
    13    68      0   0   0
    13   301     -1   0   0
    13     6      0   0   0
    13     7      0   0   0
    13    19      0   0   0
    13    20      0   0   0
    13    61      0   0   0
    13    62      0   0   0
    13   307     -1   0   0
    13   308     -1   0   0
    14    69      0   0   0
    14   295     -1   0   1
    14     7      0   0   0
    14    20      0   0   0
    14    21      0   0   0
    14    62      0   0   0
    14    63      0   0   0
    14   302     -1   0   1
    14   308     -1   0   0
    14     1      0   0   1
    15   303     -1   0   0
    15    77      0   0  -1
    15     8      0   0   0
    15     9      0   0   0
    15    22      0   0   0
    15    64      0   0   0
    15   309     -1   0   0
    15   310     -1   0   0
    15    28      0   0  -1
    15    70      0   0  -1
    16    71      0   0   0
    16   304     -1   0   0
    16     9      0   0   0
    16    10      0   0   0
    16    22      0   0   0
    16    23      0   0   0
    16    64      0   0   0
    16    65      0   0   0
    16   310     -1   0   0
    16   311     -1   0   0
    17    72      0   0   0
    17   305     -1   0   0
    17    10      0   0   0
    17    11      0   0   0
    17    23      0   0   0
    17    24      0   0   0
    17    65      0   0   0
    17    66      0   0   0
    17   311     -1   0   0
    17   312     -1   0   0
    18    73      0   0   0
    18   306     -1   0   0
    18    11      0   0   0
    18    12      0   0   0
    18    24      0   0   0
    18    25      0   0   0
    18    66      0   0   0
    18    67      0   0   0
    18   312     -1   0   0
    18   313     -1   0   0
    19    74      0   0   0
    19   307     -1   0   0
    19    12      0   0   0
    19    13      0   0   0
    19    25      0   0   0
    19    26      0   0   0
    19    67      0   0   0
    19    68      0   0   0
    19   313     -1   0   0
    19   314     -1   0   0
    20    75      0   0   0
    20   308     -1   0   0
    20    13      0   0   0
    20    14      0   0   0
    20    26      0   0   0
    20    27      0   0   0
    20    68      0   0   0
    20    69      0   0   0
    20   314     -1   0   0
    20   315     -1   0   0
    21    76      0   0   0
    21   302     -1   0   1
    21    14      0   0   0
    21    27      0   0   0
    21    28      0   0   0
    21    69      0   0   0
    21    70      0   0   0
    21   309     -1   0   1
    21   315     -1   0   0
    21     8      0   0   1
    22   310     -1   0   0
    22    84      0   0  -1
    22    15      0   0   0
    22    16      0   0   0
    22    29      0   0   0
    22    71      0   0   0
    22   316     -1   0   0
    22   317     -1   0   0
    22    35      0   0  -1
    22    77      0   0  -1
    23    78      0   0   0
    23   311     -1   0   0
    23    16      0   0   0
    23    17      0   0   0
    23    29      0   0   0
    23    30      0   0   0
    23    71      0   0   0
    23    72      0   0   0
    23   317     -1   0   0
    23   318     -1   0   0
    24    79      0   0   0
    24   312     -1   0   0
    24    17      0   0   0
    24    18      0   0   0
    24    30      0   0   0
    24    31      0   0   0
    24    72      0   0   0
    24    73      0   0   0
    24   318     -1   0   0
    24   319     -1   0   0
    25    80      0   0   0
    25   313     -1   0   0
    25    18      0   0   0
    25    19      0   0   0
    25    31      0   0   0
    25    32      0   0   0
    25    73      0   0   0
    25    74      0   0   0
    25   319     -1   0   0
    25   320     -1   0   0
    26    81      0   0   0
    26   314     -1   0   0
    26    19      0   0   0
    26    20      0   0   0
    26    32      0   0   0
    26    33      0   0   0
    26    74      0   0   0
    26    75      0   0   0
    26   320     -1   0   0
    26   321     -1   0   0
    27    82      0   0   0
    27   315     -1   0   0
    27    20      0   0   0
    27    21      0   0   0
    27    33      0   0   0
    27    34      0   0   0
    27    75      0   0   0
    27    76      0   0   0
    27   321     -1   0   0
    27   322     -1   0   0
    28    83      0   0   0
    28   309     -1   0   1
    28    21      0   0   0
    28    34      0   0   0
    28    35      0   0   0
    28    76      0   0   0
    28    77      0   0   0
    28   316     -1   0   1
    28   322     -1   0   0
    28    15      0   0   1
    29   317     -1   0   0
    29    91      0   0  -1
    29    22      0   0   0
    29    23      0   0   0
    29    36      0   0   0
    29    78      0   0   0
    29   323     -1   0   0
    29   324     -1   0   0
    29    42      0   0  -1
    29    84      0   0  -1
    30    85      0   0   0
    30   318     -1   0   0
    30    23      0   0   0
    30    24      0   0   0
    30    36      0   0   0
    30    37      0   0   0
    30    78      0   0   0
    30    79      0   0   0
    30   324     -1   0   0
    30   325     -1   0   0
    31    86      0   0   0
    31   319     -1   0   0
    31    24      0   0   0
    31    25      0   0   0
    31    37      0   0   0
    31    38      0   0   0
    31    79      0   0   0
    31    80      0   0   0
    31   325     -1   0   0
    31   326     -1   0   0
    32    87      0   0   0
    32   320     -1   0   0
    32    25      0   0   0
    32    26      0   0   0
    32    38      0   0   0
    32    39      0   0   0
    32    80      0   0   0
    32    81      0   0   0
    32   326     -1   0   0
    32   327     -1   0   0
    33    88      0   0   0
    33   321     -1   0   0
    33    26      0   0   0
    33    27      0   0   0
    33    39      0   0   0
    33    40      0   0   0
    33    81      0   0   0
    33    82      0   0   0
    33   327     -1   0   0
    33   328     -1   0   0
    34    89      0   0   0
    34   322     -1   0   0
    34    27      0   0   0
    34    28      0   0   0
    34    40      0   0   0
    34    41      0   0   0
    34    82      0   0   0
    34    83      0   0   0
    34   328     -1   0   0
    34   329     -1   0   0
    35    90      0   0   0
    35   316     -1   0   1
    35    28      0   0   0
    35    41      0   0   0
    35    42      0   0   0
    35    83      0   0   0
    35    84      0   0   0
    35   323     -1   0   1
    35   329     -1   0   0
    35    22      0   0   1
    36   324     -1   0   0
    36    98      0   0  -1
    36    29      0   0   0
    36    30      0   0   0
    36    43      0   0   0
    36    85      0   0   0
    36   330     -1   0   0
    36   331     -1   0   0
    36    49      0   0  -1
    36    91      0   0  -1
    37    92      0   0   0
    37   325     -1   0   0
    37    30      0   0   0
    37    31      0   0   0
    37    43      0   0   0
    37    44      0   0   0
    37    85      0   0   0
    37    86      0   0   0
    37   331     -1   0   0
    37   332     -1   0   0
    38    93      0   0   0
    38   326     -1   0   0
    38    31      0   0   0
    38    32      0   0   0
    38    44      0   0   0
    38    45      0   0   0
    38    86      0   0   0
    38    87      0   0   0
    38   332     -1   0   0
    38   333     -1   0   0
    39    94      0   0   0
    39   327     -1   0   0
    39    32      0   0   0
    39    33      0   0   0
    39    45      0   0   0
    39    46      0   0   0
    39    87      0   0   0
    39    88      0   0   0
    39   333     -1   0   0
    39   334     -1   0   0
    40    95      0   0   0
    40   328     -1   0   0
    40    33      0   0   0
    40    34      0   0   0
    40    46      0   0   0
    40    47      0   0   0
    40    88      0   0   0
    40    89      0   0   0
    40   334     -1   0   0
    40   335     -1   0   0
    41    96      0   0   0
    41   329     -1   0   0
    41    34      0   0   0
    41    35      0   0   0
    41    47      0   0   0
    41    48      0   0   0
    41    89      0   0   0
    41    90      0   0   0
    41   335     -1   0   0
    41   336     -1   0   0
    42    97      0   0   0
    42   323     -1   0   1
    42    35      0   0   0
    42    48      0   0   0
    42    49      0   0   0
    42    90      0   0   0
    42    91      0   0   0
    42   330     -1   0   1
    42   336     -1   0   0
    42    29      0   0   1
    43    56      0   1  -1
    43   331     -1   0   0
    43    36      0   0   0
    43    37      0   0   0
    43    92      0   0   0
    43     1      0   1   0
    43     7      0   1  -1
    43   337     -1   0   0
    43   338     -1   0   0
    43    98      0   0  -1
    44    50      0   1   0
    44   332     -1   0   0
    44    37      0   0   0
    44    38      0   0   0
    44    92      0   0   0
    44    93      0   0   0
    44     1      0   1   0
    44     2      0   1   0
    44   338     -1   0   0
    44   339     -1   0   0
    45    51      0   1   0
    45   333     -1   0   0
    45    38      0   0   0
    45    39      0   0   0
    45    93      0   0   0
    45    94      0   0   0
    45     2      0   1   0
    45     3      0   1   0
    45   339     -1   0   0
    45   340     -1   0   0
    46    52      0   1   0
    46   334     -1   0   0
    46    39      0   0   0
    46    40      0   0   0
    46    94      0   0   0
    46    95      0   0   0
    46     3      0   1   0
    46     4      0   1   0
    46   340     -1   0   0
    46   341     -1   0   0
    47    53      0   1   0
    47   335     -1   0   0
    47    40      0   0   0
    47    41      0   0   0
    47    95      0   0   0
    47    96      0   0   0
    47     4      0   1   0
    47     5      0   1   0
    47   341     -1   0   0
    47   342     -1   0   0
    48    54      0   1   0
    48   336     -1   0   0
    48    41      0   0   0
    48    42      0   0   0
    48    96      0   0   0
    48    97      0   0   0
    48     5      0   1   0
    48     6      0   1   0
    48   342     -1   0   0
    48   343     -1   0   0
    49    55      0   1   0
    49   330     -1   0   1
    49    42      0   0   0
    49    97      0   0   0
    49    98      0   0   0
    49     6      0   1   0
    49     7      0   1   0
    49   337     -1   0   1
    49   343     -1   0   0
    49    36      0   0   1
    50    44      0  -1   0
    50   112      0   0  -1
    50     1      0   0   0
    50     2      0   0   0
    50    57      0   0   0
    50    99      0   0   0
    50    92      0  -1   0
    50    93      0  -1   0
    50    63      0   0  -1
    50   105      0   0  -1
    51   106      0   0   0
    51    45      0  -1   0
    51     2      0   0   0
    51     3      0   0   0
    51    57      0   0   0
    51    58      0   0   0
    51    99      0   0   0
    51   100      0   0   0
    51    93      0  -1   0
    51    94      0  -1   0
    52   107      0   0   0
    52    46      0  -1   0
    52     3      0   0   0
    52     4      0   0   0
    52    58      0   0   0
    52    59      0   0   0
    52   100      0   0   0
    52   101      0   0   0
    52    94      0  -1   0
    52    95      0  -1   0
    53   108      0   0   0
    53    47      0  -1   0
    53     4      0   0   0
    53     5      0   0   0
    53    59      0   0   0
    53    60      0   0   0
    53   101      0   0   0
    53   102      0   0   0
    53    95      0  -1   0
    53    96      0  -1   0
    54   109      0   0   0
    54    48      0  -1   0
    54     5      0   0   0
    54     6      0   0   0
    54    60      0   0   0
    54    61      0   0   0
    54   102      0   0   0
    54   103      0   0   0
    54    96      0  -1   0
    54    97      0  -1   0
    55   110      0   0   0
    55    49      0  -1   0
    55     6      0   0   0
    55     7      0   0   0
    55    61      0   0   0
    55    62      0   0   0
    55   103      0   0   0
    55   104      0   0   0
    55    97      0  -1   0
    55    98      0  -1   0
    56   111      0   0   0
    56    43      0  -1   1
    56     7      0   0   0
    56    62      0   0   0
    56    63      0   0   0
    56   104      0   0   0
    56   105      0   0   0
    56    92      0  -1   1
    56    98      0  -1   0
    56     1      0   0   1
    57     2      0   0   0
    57   119      0   0  -1
    57     8      0   0   0
    57     9      0   0   0
    57    50      0   0   0
    57    51      0   0   0
    57    64      0   0   0
    57   106      0   0   0
    57    70      0   0  -1
    57   112      0   0  -1
    58     3      0   0   0
    58   113      0   0   0
    58     9      0   0   0
    58    10      0   0   0
    58    51      0   0   0
    58    52      0   0   0
    58    64      0   0   0
    58    65      0   0   0
    58   106      0   0   0
    58   107      0   0   0
    59     4      0   0   0
    59   114      0   0   0
    59    10      0   0   0
    59    11      0   0   0
    59    52      0   0   0
    59    53      0   0   0
    59    65      0   0   0
    59    66      0   0   0
    59   107      0   0   0
    59   108      0   0   0
    60     5      0   0   0
    60   115      0   0   0
    60    11      0   0   0
    60    12      0   0   0
    60    53      0   0   0
    60    54      0   0   0
    60    66      0   0   0
    60    67      0   0   0
    60   108      0   0   0
    60   109      0   0   0
    61     6      0   0   0
    61   116      0   0   0
    61    12      0   0   0
    61    13      0   0   0
    61    54      0   0   0
    61    55      0   0   0
    61    67      0   0   0
    61    68      0   0   0
    61   109      0   0   0
    61   110      0   0   0
    62     7      0   0   0
    62   117      0   0   0
    62    13      0   0   0
    62    14      0   0   0
    62    55      0   0   0
    62    56      0   0   0
    62    68      0   0   0
    62    69      0   0   0
    62   110      0   0   0
    62   111      0   0   0
    63   118      0   0   0
    63     1      0   0   1
    63    14      0   0   0
    63    56      0   0   0
    63    69      0   0   0
    63    70      0   0   0
    63   111      0   0   0
    63   112      0   0   0
    63     8      0   0   1
    63    50      0   0   1
    64     9      0   0   0
    64   126      0   0  -1
    64    15      0   0   0
    64    16      0   0   0
    64    57      0   0   0
    64    58      0   0   0
    64    71      0   0   0
    64   113      0   0   0
    64    77      0   0  -1
    64   119      0   0  -1
    65    10      0   0   0
    65   120      0   0   0
    65    16      0   0   0
    65    17      0   0   0
    65    58      0   0   0
    65    59      0   0   0
    65    71      0   0   0
    65    72      0   0   0
    65   113      0   0   0
    65   114      0   0   0
    66    11      0   0   0
    66   121      0   0   0
    66    17      0   0   0
    66    18      0   0   0
    66    59      0   0   0
    66    60      0   0   0
    66    72      0   0   0
    66    73      0   0   0
    66   114      0   0   0
    66   115      0   0   0
    67    12      0   0   0
    67   122      0   0   0
    67    18      0   0   0
    67    19      0   0   0
    67    60      0   0   0
    67    61      0   0   0
    67    73      0   0   0
    67    74      0   0   0
    67   115      0   0   0
    67   116      0   0   0
    68    13      0   0   0
    68   123      0   0   0
    68    19      0   0   0
    68    20      0   0   0
    68    61      0   0   0
    68    62      0   0   0
    68    74      0   0   0
    68    75      0   0   0
    68   116      0   0   0
    68   117      0   0   0
    69    14      0   0   0
    69   124      0   0   0
    69    20      0   0   0
    69    21      0   0   0
    69    62      0   0   0
    69    63      0   0   0
    69    75      0   0   0
    69    76      0   0   0
    69   117      0   0   0
    69   118      0   0   0
    70   125      0   0   0
    70     8      0   0   1
    70    21      0   0   0
    70    63      0   0   0
    70    76      0   0   0
    70    77      0   0   0
    70   118      0   0   0
    70   119      0   0   0
    70    15      0   0   1
    70    57      0   0   1
    71    16      0   0   0
    71   133      0   0  -1
    71    22      0   0   0
    71    23      0   0   0
    71    64      0   0   0
    71    65      0   0   0
    71    78      0   0   0
    71   120      0   0   0
    71    84      0   0  -1
    71   126      0   0  -1
    72    17      0   0   0
    72   127      0   0   0
    72    23      0   0   0
    72    24      0   0   0
    72    65      0   0   0
    72    66      0   0   0
    72    78      0   0   0
    72    79      0   0   0
    72   120      0   0   0
    72   121      0   0   0
    73    18      0   0   0
    73   128      0   0   0
    73    24      0   0   0
    73    25      0   0   0
    73    66      0   0   0
    73    67      0   0   0
    73    79      0   0   0
    73    80      0   0   0
    73   121      0   0   0
    73   122      0   0   0
    74    19      0   0   0
    74   129      0   0   0
    74    25      0   0   0
    74    26      0   0   0
    74    67      0   0   0
    74    68      0   0   0
    74    80      0   0   0
    74    81      0   0   0
    74   122      0   0   0
    74   123      0   0   0
    75    20      0   0   0
    75   130      0   0   0
    75    26      0   0   0
    75    27      0   0   0
    75    68      0   0   0
    75    69      0   0   0
    75    81      0   0   0
    75    82      0   0   0
    75   123      0   0   0
    75   124      0   0   0
    76    21      0   0   0
    76   131      0   0   0
    76    27      0   0   0
    76    28      0   0   0
    76    69      0   0   0
    76    70      0   0   0
    76    82      0   0   0
    76    83      0   0   0
    76   124      0   0   0
    76   125      0   0   0
    77   132      0   0   0
    77    15      0   0   1
    77    28      0   0   0
    77    70      0   0   0
    77    83      0   0   0
    77    84      0   0   0
    77   125      0   0   0
    77   126      0   0   0
    77    22      0   0   1
    77    64      0   0   1
    78    23      0   0   0
    78   140      0   0  -1
    78    29      0   0   0
    78    30      0   0   0
    78    71      0   0   0
    78    72      0   0   0
    78    85      0   0   0
    78   127      0   0   0
    78    91      0   0  -1
    78   133      0   0  -1
    79    24      0   0   0
    79   134      0   0   0
    79    30      0   0   0
    79    31      0   0   0
    79    72      0   0   0
    79    73      0   0   0
    79    85      0   0   0
    79    86      0   0   0
    79   127      0   0   0
    79   128      0   0   0
    80    25      0   0   0
    80   135      0   0   0
    80    31      0   0   0
    80    32      0   0   0
    80    73      0   0   0
    80    74      0   0   0
    80    86      0   0   0
    80    87      0   0   0
    80   128      0   0   0
    80   129      0   0   0
    81    26      0   0   0
    81   136      0   0   0
    81    32      0   0   0
    81    33      0   0   0
    81    74      0   0   0
    81    75      0   0   0
    81    87      0   0   0
    81    88      0   0   0
    81   129      0   0   0
    81   130      0   0   0
    82    27      0   0   0
    82   137      0   0   0
    82    33      0   0   0
    82    34      0   0   0
    82    75      0   0   0
    82    76      0   0   0
    82    88      0   0   0
    82    89      0   0   0
    82   130      0   0   0
    82   131      0   0   0
    83    28      0   0   0
    83   138      0   0   0
    83    34      0   0   0
    83    35      0   0   0
    83    76      0   0   0
    83    77      0   0   0
    83    89      0   0   0
    83    90      0   0   0
    83   131      0   0   0
    83   132      0   0   0
    84   139      0   0   0
    84    22      0   0   1
    84    35      0   0   0
    84    77      0   0   0
    84    90      0   0   0
    84    91      0   0   0
    84   132      0   0   0
    84   133      0   0   0
    84    29      0   0   1
    84    71      0   0   1
    85    30      0   0   0
    85   147      0   0  -1
    85    36      0   0   0
    85    37      0   0   0
    85    78      0   0   0
    85    79      0   0   0
    85    92      0   0   0
    85   134      0   0   0
    85    98      0   0  -1
    85   140      0   0  -1
    86    31      0   0   0
    86   141      0   0   0
    86    37      0   0   0
    86    38      0   0   0
    86    79      0   0   0
    86    80      0   0   0
    86    92      0   0   0
    86    93      0   0   0
    86   134      0   0   0
    86   135      0   0   0
    87    32      0   0   0
    87   142      0   0   0
    87    38      0   0   0
    87    39      0   0   0
    87    80      0   0   0
    87    81      0   0   0
    87    93      0   0   0
    87    94      0   0   0
    87   135      0   0   0
    87   136      0   0   0
    88    33      0   0   0
    88   143      0   0   0
    88    39      0   0   0
    88    40      0   0   0
    88    81      0   0   0
    88    82      0   0   0
    88    94      0   0   0
    88    95      0   0   0
    88   136      0   0   0
    88   137      0   0   0
    89    34      0   0   0
    89   144      0   0   0
    89    40      0   0   0
    89    41      0   0   0
    89    82      0   0   0
    89    83      0   0   0
    89    95      0   0   0
    89    96      0   0   0
    89   137      0   0   0
    89   138      0   0   0
    90    35      0   0   0
    90   145      0   0   0
    90    41      0   0   0
    90    42      0   0   0
    90    83      0   0   0
    90    84      0   0   0
    90    96      0   0   0
    90    97      0   0   0
    90   138      0   0   0
    90   139      0   0   0
    91   146      0   0   0
    91    29      0   0   1
    91    42      0   0   0
    91    84      0   0   0
    91    97      0   0   0
    91    98      0   0   0
    91   139      0   0   0
    91   140      0   0   0
    91    36      0   0   1
    91    78      0   0   1
    92    37      0   0   0
    92   105      0   1  -1
    92    43      0   0   0
    92    44      0   0   0
    92    85      0   0   0
    92    86      0   0   0
    92   141      0   0   0
    92    50      0   1   0
    92    56      0   1  -1
    92   147      0   0  -1
    93    38      0   0   0
    93    99      0   1   0
    93    44      0   0   0
    93    45      0   0   0
    93    86      0   0   0
    93    87      0   0   0
    93   141      0   0   0
    93   142      0   0   0
    93    50      0   1   0
    93    51      0   1   0
    94    39      0   0   0
    94   100      0   1   0
    94    45      0   0   0
    94    46      0   0   0
    94    87      0   0   0
    94    88      0   0   0
    94   142      0   0   0
    94   143      0   0   0
    94    51      0   1   0
    94    52      0   1   0
    95    40      0   0   0
    95   101      0   1   0
    95    46      0   0   0
    95    47      0   0   0
    95    88      0   0   0
    95    89      0   0   0
    95   143      0   0   0
    95   144      0   0   0
    95    52      0   1   0
    95    53      0   1   0
    96    41      0   0   0
    96   102      0   1   0
    96    47      0   0   0
    96    48      0   0   0
    96    89      0   0   0
    96    90      0   0   0
    96   144      0   0   0
    96   145      0   0   0
    96    53      0   1   0
    96    54      0   1   0
    97    42      0   0   0
    97   103      0   1   0
    97    48      0   0   0
    97    49      0   0   0
    97    90      0   0   0
    97    91      0   0   0
    97   145      0   0   0
    97   146      0   0   0
    97    54      0   1   0
    97    55      0   1   0
    98   104      0   1   0
    98    36      0   0   1
    98    49      0   0   0
    98    91      0   0   0
    98   146      0   0   0
    98   147      0   0   0
    98    55      0   1   0
    98    56      0   1   0
    98    43      0   0   1
    98    85      0   0   1
    99    93      0  -1   0
    99   161      0   0  -1
    99    50      0   0   0
    99    51      0   0   0
    99   106      0   0   0
    99   148      0   0   0
    99   141      0  -1   0
    99   142      0  -1   0
    99   112      0   0  -1
    99   154      0   0  -1
   100   155      0   0   0
   100    94      0  -1   0
   100    51      0   0   0
   100    52      0   0   0
   100   106      0   0   0
   100   107      0   0   0
   100   148      0   0   0
   100   149      0   0   0
   100   142      0  -1   0
   100   143      0  -1   0
   101   156      0   0   0
   101    95      0  -1   0
   101    52      0   0   0
   101    53      0   0   0
   101   107      0   0   0
   101   108      0   0   0
   101   149      0   0   0
   101   150      0   0   0
   101   143      0  -1   0
   101   144      0  -1   0
   102   157      0   0   0
   102    96      0  -1   0
   102    53      0   0   0
   102    54      0   0   0
   102   108      0   0   0
   102   109      0   0   0
   102   150      0   0   0
   102   151      0   0   0
   102   144      0  -1   0
   102   145      0  -1   0
   103   158      0   0   0
   103    97      0  -1   0
   103    54      0   0   0
   103    55      0   0   0
   103   109      0   0   0
   103   110      0   0   0
   103   151      0   0   0
   103   152      0   0   0
   103   145      0  -1   0
   103   146      0  -1   0
   104   159      0   0   0
   104    98      0  -1   0
   104    55      0   0   0
   104    56      0   0   0
   104   110      0   0   0
   104   111      0   0   0
   104   152      0   0   0
   104   153      0   0   0
   104   146      0  -1   0
   104   147      0  -1   0
   105   160      0   0   0
   105    92      0  -1   1
   105    56      0   0   0
   105   111      0   0   0
   105   112      0   0   0
   105   153      0   0   0
   105   154      0   0   0
   105   141      0  -1   1
   105   147      0  -1   0
   105    50      0   0   1
   106    51      0   0   0
   106   168      0   0  -1
   106    57      0   0   0
   106    58      0   0   0
   106    99      0   0   0
   106   100      0   0   0
   106   113      0   0   0
   106   155      0   0   0
   106   119      0   0  -1
   106   161      0   0  -1
   107    52      0   0   0
   107   162      0   0   0
   107    58      0   0   0
   107    59      0   0   0
   107   100      0   0   0
   107   101      0   0   0
   107   113      0   0   0
   107   114      0   0   0
   107   155      0   0   0
   107   156      0   0   0
   108    53      0   0   0
   108   163      0   0   0
   108    59      0   0   0
   108    60      0   0   0
   108   101      0   0   0
   108   102      0   0   0
   108   114      0   0   0
   108   115      0   0   0
   108   156      0   0   0
   108   157      0   0   0
   109    54      0   0   0
   109   164      0   0   0
   109    60      0   0   0
   109    61      0   0   0
   109   102      0   0   0
   109   103      0   0   0
   109   115      0   0   0
   109   116      0   0   0
   109   157      0   0   0
   109   158      0   0   0
   110    55      0   0   0
   110   165      0   0   0
   110    61      0   0   0
   110    62      0   0   0
   110   103      0   0   0
   110   104      0   0   0
   110   116      0   0   0
   110   117      0   0   0
   110   158      0   0   0
   110   159      0   0   0
   111    56      0   0   0
   111   166      0   0   0
   111    62      0   0   0
   111    63      0   0   0
   111   104      0   0   0
   111   105      0   0   0
   111   117      0   0   0
   111   118      0   0   0
   111   159      0   0   0
   111   160      0   0   0
   112   167      0   0   0
   112    50      0   0   1
   112    63      0   0   0
   112   105      0   0   0
   112   118      0   0   0
   112   119      0   0   0
   112   160      0   0   0
   112   161      0   0   0
   112    57      0   0   1
   112    99      0   0   1
   113    58      0   0   0
   113   175      0   0  -1
   113    64      0   0   0
   113    65      0   0   0
   113   106      0   0   0
   113   107      0   0   0
   113   120      0   0   0
   113   162      0   0   0
   113   126      0   0  -1
   113   168      0   0  -1
   114    59      0   0   0
   114   169      0   0   0
   114    65      0   0   0
   114    66      0   0   0
   114   107      0   0   0
   114   108      0   0   0
   114   120      0   0   0
   114   121      0   0   0
   114   162      0   0   0
   114   163      0   0   0
   115    60      0   0   0
   115   170      0   0   0
   115    66      0   0   0
   115    67      0   0   0
   115   108      0   0   0
   115   109      0   0   0
   115   121      0   0   0
   115   122      0   0   0
   115   163      0   0   0
   115   164      0   0   0
   116    61      0   0   0
   116   171      0   0   0
   116    67      0   0   0
   116    68      0   0   0
   116   109      0   0   0
   116   110      0   0   0
   116   122      0   0   0
   116   123      0   0   0
   116   164      0   0   0
   116   165      0   0   0
   117    62      0   0   0
   117   172      0   0   0
   117    68      0   0   0
   117    69      0   0   0
   117   110      0   0   0
   117   111      0   0   0
   117   123      0   0   0
   117   124      0   0   0
   117   165      0   0   0
   117   166      0   0   0
   118    63      0   0   0
   118   173      0   0   0
   118    69      0   0   0
   118    70      0   0   0
   118   111      0   0   0
   118   112      0   0   0
   118   124      0   0   0
   118   125      0   0   0
   118   166      0   0   0
   118   167      0   0   0
   119   174      0   0   0
   119    57      0   0   1
   119    70      0   0   0
   119   112      0   0   0
   119   125      0   0   0
   119   126      0   0   0
   119   167      0   0   0
   119   168      0   0   0
   119    64      0   0   1
   119   106      0   0   1
   120    65      0   0   0
   120   182      0   0  -1
   120    71      0   0   0
   120    72      0   0   0
   120   113      0   0   0
   120   114      0   0   0
   120   127      0   0   0
   120   169      0   0   0
   120   133      0   0  -1
   120   175      0   0  -1
   121    66      0   0   0
   121   176      0   0   0
   121    72      0   0   0
   121    73      0   0   0
   121   114      0   0   0
   121   115      0   0   0
   121   127      0   0   0
   121   128      0   0   0
   121   169      0   0   0
   121   170      0   0   0
   122    67      0   0   0
   122   177      0   0   0
   122    73      0   0   0
   122    74      0   0   0
   122   115      0   0   0
   122   116      0   0   0
   122   128      0   0   0
   122   129      0   0   0
   122   170      0   0   0
   122   171      0   0   0
   123    68      0   0   0
   123   178      0   0   0
   123    74      0   0   0
   123    75      0   0   0
   123   116      0   0   0
   123   117      0   0   0
   123   129      0   0   0
   123   130      0   0   0
   123   171      0   0   0
   123   172      0   0   0
   124    69      0   0   0
   124   179      0   0   0
   124    75      0   0   0
   124    76      0   0   0
   124   117      0   0   0
   124   118      0   0   0
   124   130      0   0   0
   124   131      0   0   0
   124   172      0   0   0
   124   173      0   0   0
   125    70      0   0   0
   125   180      0   0   0
   125    76      0   0   0
   125    77      0   0   0
   125   118      0   0   0
   125   119      0   0   0
   125   131      0   0   0
   125   132      0   0   0
   125   173      0   0   0
   125   174      0   0   0
   126   181      0   0   0
   126    64      0   0   1
   126    77      0   0   0
   126   119      0   0   0
   126   132      0   0   0
   126   133      0   0   0
   126   174      0   0   0
   126   175      0   0   0
   126    71      0   0   1
   126   113      0   0   1
   127    72      0   0   0
   127   189      0   0  -1
   127    78      0   0   0
   127    79      0   0   0
   127   120      0   0   0
   127   121      0   0   0
   127   134      0   0   0
   127   176      0   0   0
   127   140      0   0  -1
   127   182      0   0  -1
   128    73      0   0   0
   128   183      0   0   0
   128    79      0   0   0
   128    80      0   0   0
   128   121      0   0   0
   128   122      0   0   0
   128   134      0   0   0
   128   135      0   0   0
   128   176      0   0   0
   128   177      0   0   0
   129    74      0   0   0
   129   184      0   0   0
   129    80      0   0   0
   129    81      0   0   0
   129   122      0   0   0
   129   123      0   0   0
   129   135      0   0   0
   129   136      0   0   0
   129   177      0   0   0
   129   178      0   0   0
   130    75      0   0   0
   130   185      0   0   0
   130    81      0   0   0
   130    82      0   0   0
   130   123      0   0   0
   130   124      0   0   0
   130   136      0   0   0
   130   137      0   0   0
   130   178      0   0   0
   130   179      0   0   0
   131    76      0   0   0
   131   186      0   0   0
   131    82      0   0   0
   131    83      0   0   0
   131   124      0   0   0
   131   125      0   0   0
   131   137      0   0   0
   131   138      0   0   0
   131   179      0   0   0
   131   180      0   0   0
   132    77      0   0   0
   132   187      0   0   0
   132    83      0   0   0
   132    84      0   0   0
   132   125      0   0   0
   132   126      0   0   0
   132   138      0   0   0
   132   139      0   0   0
   132   180      0   0   0
   132   181      0   0   0
   133   188      0   0   0
   133    71      0   0   1
   133    84      0   0   0
   133   126      0   0   0
   133   139      0   0   0
   133   140      0   0   0
   133   181      0   0   0
   133   182      0   0   0
   133    78      0   0   1
   133   120      0   0   1
   134    79      0   0   0
   134   196      0   0  -1
   134    85      0   0   0
   134    86      0   0   0
   134   127      0   0   0
   134   128      0   0   0
   134   141      0   0   0
   134   183      0   0   0
   134   147      0   0  -1
   134   189      0   0  -1
   135    80      0   0   0
   135   190      0   0   0
   135    86      0   0   0
   135    87      0   0   0
   135   128      0   0   0
   135   129      0   0   0
   135   141      0   0   0
   135   142      0   0   0
   135   183      0   0   0
   135   184      0   0   0
   136    81      0   0   0
   136   191      0   0   0
   136    87      0   0   0
   136    88      0   0   0
   136   129      0   0   0
   136   130      0   0   0
   136   142      0   0   0
   136   143      0   0   0
   136   184      0   0   0
   136   185      0   0   0
   137    82      0   0   0
   137   192      0   0   0
   137    88      0   0   0
   137    89      0   0   0
   137   130      0   0   0
   137   131      0   0   0
   137   143      0   0   0
   137   144      0   0   0
   137   185      0   0   0
   137   186      0   0   0
   138    83      0   0   0
   138   193      0   0   0
   138    89      0   0   0
   138    90      0   0   0
   138   131      0   0   0
   138   132      0   0   0
   138   144      0   0   0
   138   145      0   0   0
   138   186      0   0   0
   138   187      0   0   0
   139    84      0   0   0
   139   194      0   0   0
   139    90      0   0   0
   139    91      0   0   0
   139   132      0   0   0
   139   133      0   0   0
   139   145      0   0   0
   139   146      0   0   0
   139   187      0   0   0
   139   188      0   0   0
   140   195      0   0   0
   140    78      0   0   1
   140    91      0   0   0
   140   133      0   0   0
   140   146      0   0   0
   140   147      0   0   0
   140   188      0   0   0
   140   189      0   0   0
   140    85      0   0   1
   140   127      0   0   1
   141    86      0   0   0
   141   154      0   1  -1
   141    92      0   0   0
   141    93      0   0   0
   141   134      0   0   0
   141   135      0   0   0
   141   190      0   0   0
   141    99      0   1   0
   141   105      0   1  -1
   141   196      0   0  -1
   142    87      0   0   0
   142   148      0   1   0
   142    93      0   0   0
   142    94      0   0   0
   142   135      0   0   0
   142   136      0   0   0
   142   190      0   0   0
   142   191      0   0   0
   142    99      0   1   0
   142   100      0   1   0
   143    88      0   0   0
   143   149      0   1   0
   143    94      0   0   0
   143    95      0   0   0
   143   136      0   0   0
   143   137      0   0   0
   143   191      0   0   0
   143   192      0   0   0
   143   100      0   1   0
   143   101      0   1   0
   144    89      0   0   0
   144   150      0   1   0
   144    95      0   0   0
   144    96      0   0   0
   144   137      0   0   0
   144   138      0   0   0
   144   192      0   0   0
   144   193      0   0   0
   144   101      0   1   0
   144   102      0   1   0
   145    90      0   0   0
   145   151      0   1   0
   145    96      0   0   0
   145    97      0   0   0
   145   138      0   0   0
   145   139      0   0   0
   145   193      0   0   0
   145   194      0   0   0
   145   102      0   1   0
   145   103      0   1   0
   146    91      0   0   0
   146   152      0   1   0
   146    97      0   0   0
   146    98      0   0   0
   146   139      0   0   0
   146   140      0   0   0
   146   194      0   0   0
   146   195      0   0   0
   146   103      0   1   0
   146   104      0   1   0
   147   153      0   1   0
   147    85      0   0   1
   147    98      0   0   0
   147   140      0   0   0
   147   195      0   0   0
   147   196      0   0   0
   147   104      0   1   0
   147   105      0   1   0
   147    92      0   0   1
   147   134      0   0   1
   148   142      0  -1   0
   148   210      0   0  -1
   148    99      0   0   0
   148   100      0   0   0
   148   155      0   0   0
   148   197      0   0   0
   148   190      0  -1   0
   148   191      0  -1   0
   148   161      0   0  -1
   148   203      0   0  -1
   149   204      0   0   0
   149   143      0  -1   0
   149   100      0   0   0
   149   101      0   0   0
   149   155      0   0   0
   149   156      0   0   0
   149   197      0   0   0
   149   198      0   0   0
   149   191      0  -1   0
   149   192      0  -1   0
   150   205      0   0   0
   150   144      0  -1   0
   150   101      0   0   0
   150   102      0   0   0
   150   156      0   0   0
   150   157      0   0   0
   150   198      0   0   0
   150   199      0   0   0
   150   192      0  -1   0
   150   193      0  -1   0
   151   206      0   0   0
   151   145      0  -1   0
   151   102      0   0   0
   151   103      0   0   0
   151   157      0   0   0
   151   158      0   0   0
   151   199      0   0   0
   151   200      0   0   0
   151   193      0  -1   0
   151   194      0  -1   0
   152   207      0   0   0
   152   146      0  -1   0
   152   103      0   0   0
   152   104      0   0   0
   152   158      0   0   0
   152   159      0   0   0
   152   200      0   0   0
   152   201      0   0   0
   152   194      0  -1   0
   152   195      0  -1   0
   153   208      0   0   0
   153   147      0  -1   0
   153   104      0   0   0
   153   105      0   0   0
   153   159      0   0   0
   153   160      0   0   0
   153   201      0   0   0
   153   202      0   0   0
   153   195      0  -1   0
   153   196      0  -1   0
   154   209      0   0   0
   154   141      0  -1   1
   154   105      0   0   0
   154   160      0   0   0
   154   161      0   0   0
   154   202      0   0   0
   154   203      0   0   0
   154   190      0  -1   1
   154   196      0  -1   0
   154    99      0   0   1
   155   100      0   0   0
   155   217      0   0  -1
   155   106      0   0   0
   155   107      0   0   0
   155   148      0   0   0
   155   149      0   0   0
   155   162      0   0   0
   155   204      0   0   0
   155   168      0   0  -1
   155   210      0   0  -1
   156   101      0   0   0
   156   211      0   0   0
   156   107      0   0   0
   156   108      0   0   0
   156   149      0   0   0
   156   150      0   0   0
   156   162      0   0   0
   156   163      0   0   0
   156   204      0   0   0
   156   205      0   0   0
   157   102      0   0   0
   157   212      0   0   0
   157   108      0   0   0
   157   109      0   0   0
   157   150      0   0   0
   157   151      0   0   0
   157   163      0   0   0
   157   164      0   0   0
   157   205      0   0   0
   157   206      0   0   0
   158   103      0   0   0
   158   213      0   0   0
   158   109      0   0   0
   158   110      0   0   0
   158   151      0   0   0
   158   152      0   0   0
   158   164      0   0   0
   158   165      0   0   0
   158   206      0   0   0
   158   207      0   0   0
   159   104      0   0   0
   159   214      0   0   0
   159   110      0   0   0
   159   111      0   0   0
   159   152      0   0   0
   159   153      0   0   0
   159   165      0   0   0
   159   166      0   0   0
   159   207      0   0   0
   159   208      0   0   0
   160   105      0   0   0
   160   215      0   0   0
   160   111      0   0   0
   160   112      0   0   0
   160   153      0   0   0
   160   154      0   0   0
   160   166      0   0   0
   160   167      0   0   0
   160   208      0   0   0
   160   209      0   0   0
   161   216      0   0   0
   161    99      0   0   1
   161   112      0   0   0
   161   154      0   0   0
   161   167      0   0   0
   161   168      0   0   0
   161   209      0   0   0
   161   210      0   0   0
   161   106      0   0   1
   161   148      0   0   1
   162   107      0   0   0
   162   224      0   0  -1
   162   113      0   0   0
   162   114      0   0   0
   162   155      0   0   0
   162   156      0   0   0
   162   169      0   0   0
   162   211      0   0   0
   162   175      0   0  -1
   162   217      0   0  -1
   163   108      0   0   0
   163   218      0   0   0
   163   114      0   0   0
   163   115      0   0   0
   163   156      0   0   0
   163   157      0   0   0
   163   169      0   0   0
   163   170      0   0   0
   163   211      0   0   0
   163   212      0   0   0
   164   109      0   0   0
   164   219      0   0   0
   164   115      0   0   0
   164   116      0   0   0
   164   157      0   0   0
   164   158      0   0   0
   164   170      0   0   0
   164   171      0   0   0
   164   212      0   0   0
   164   213      0   0   0
   165   110      0   0   0
   165   220      0   0   0
   165   116      0   0   0
   165   117      0   0   0
   165   158      0   0   0
   165   159      0   0   0
   165   171      0   0   0
   165   172      0   0   0
   165   213      0   0   0
   165   214      0   0   0
   166   111      0   0   0
   166   221      0   0   0
   166   117      0   0   0
   166   118      0   0   0
   166   159      0   0   0
   166   160      0   0   0
   166   172      0   0   0
   166   173      0   0   0
   166   214      0   0   0
   166   215      0   0   0
   167   112      0   0   0
   167   222      0   0   0
   167   118      0   0   0
   167   119      0   0   0
   167   160      0   0   0
   167   161      0   0   0
   167   173      0   0   0
   167   174      0   0   0
   167   215      0   0   0
   167   216      0   0   0
   168   223      0   0   0
   168   106      0   0   1
   168   119      0   0   0
   168   161      0   0   0
   168   174      0   0   0
   168   175      0   0   0
   168   216      0   0   0
   168   217      0   0   0
   168   113      0   0   1
   168   155      0   0   1
   169   114      0   0   0
   169   231      0   0  -1
   169   120      0   0   0
   169   121      0   0   0
   169   162      0   0   0
   169   163      0   0   0
   169   176      0   0   0
   169   218      0   0   0
   169   182      0   0  -1
   169   224      0   0  -1
   170   115      0   0   0
   170   225      0   0   0
   170   121      0   0   0
   170   122      0   0   0
   170   163      0   0   0
   170   164      0   0   0
   170   176      0   0   0
   170   177      0   0   0
   170   218      0   0   0
   170   219      0   0   0
   171   116      0   0   0
   171   226      0   0   0
   171   122      0   0   0
   171   123      0   0   0
   171   164      0   0   0
   171   165      0   0   0
   171   177      0   0   0
   171   178      0   0   0
   171   219      0   0   0
   171   220      0   0   0
   172   117      0   0   0
   172   227      0   0   0
   172   123      0   0   0
   172   124      0   0   0
   172   165      0   0   0
   172   166      0   0   0
   172   178      0   0   0
   172   179      0   0   0
   172   220      0   0   0
   172   221      0   0   0
   173   118      0   0   0
   173   228      0   0   0
   173   124      0   0   0
   173   125      0   0   0
   173   166      0   0   0
   173   167      0   0   0
   173   179      0   0   0
   173   180      0   0   0
   173   221      0   0   0
   173   222      0   0   0
   174   119      0   0   0
   174   229      0   0   0
   174   125      0   0   0
   174   126      0   0   0
   174   167      0   0   0
   174   168      0   0   0
   174   180      0   0   0
   174   181      0   0   0
   174   222      0   0   0
   174   223      0   0   0
   175   230      0   0   0
   175   113      0   0   1
   175   126      0   0   0
   175   168      0   0   0
   175   181      0   0   0
   175   182      0   0   0
   175   223      0   0   0
   175   224      0   0   0
   175   120      0   0   1
   175   162      0   0   1
   176   121      0   0   0
   176   238      0   0  -1
   176   127      0   0   0
   176   128      0   0   0
   176   169      0   0   0
   176   170      0   0   0
   176   183      0   0   0
   176   225      0   0   0
   176   189      0   0  -1
   176   231      0   0  -1
   177   122      0   0   0
   177   232      0   0   0
   177   128      0   0   0
   177   129      0   0   0
   177   170      0   0   0
   177   171      0   0   0
   177   183      0   0   0
   177   184      0   0   0
   177   225      0   0   0
   177   226      0   0   0
   178   123      0   0   0
   178   233      0   0   0
   178   129      0   0   0
   178   130      0   0   0
   178   171      0   0   0
   178   172      0   0   0
   178   184      0   0   0
   178   185      0   0   0
   178   226      0   0   0
   178   227      0   0   0
   179   124      0   0   0
   179   234      0   0   0
   179   130      0   0   0
   179   131      0   0   0
   179   172      0   0   0
   179   173      0   0   0
   179   185      0   0   0
   179   186      0   0   0
   179   227      0   0   0
   179   228      0   0   0
   180   125      0   0   0
   180   235      0   0   0
   180   131      0   0   0
   180   132      0   0   0
   180   173      0   0   0
   180   174      0   0   0
   180   186      0   0   0
   180   187      0   0   0
   180   228      0   0   0
   180   229      0   0   0
   181   126      0   0   0
   181   236      0   0   0
   181   132      0   0   0
   181   133      0   0   0
   181   174      0   0   0
   181   175      0   0   0
   181   187      0   0   0
   181   188      0   0   0
   181   229      0   0   0
   181   230      0   0   0
   182   237      0   0   0
   182   120      0   0   1
   182   133      0   0   0
   182   175      0   0   0
   182   188      0   0   0
   182   189      0   0   0
   182   230      0   0   0
   182   231      0   0   0
   182   127      0   0   1
   182   169      0   0   1
   183   128      0   0   0
   183   245      0   0  -1
   183   134      0   0   0
   183   135      0   0   0
   183   176      0   0   0
   183   177      0   0   0
   183   190      0   0   0
   183   232      0   0   0
   183   196      0   0  -1
   183   238      0   0  -1
   184   129      0   0   0
   184   239      0   0   0
   184   135      0   0   0
   184   136      0   0   0
   184   177      0   0   0
   184   178      0   0   0
   184   190      0   0   0
   184   191      0   0   0
   184   232      0   0   0
   184   233      0   0   0
   185   130      0   0   0
   185   240      0   0   0
   185   136      0   0   0
   185   137      0   0   0
   185   178      0   0   0
   185   179      0   0   0
   185   191      0   0   0
   185   192      0   0   0
   185   233      0   0   0
   185   234      0   0   0
   186   131      0   0   0
   186   241      0   0   0
   186   137      0   0   0
   186   138      0   0   0
   186   179      0   0   0
   186   180      0   0   0
   186   192      0   0   0
   186   193      0   0   0
   186   234      0   0   0
   186   235      0   0   0
   187   132      0   0   0
   187   242      0   0   0
   187   138      0   0   0
   187   139      0   0   0
   187   180      0   0   0
   187   181      0   0   0
   187   193      0   0   0
   187   194      0   0   0
   187   235      0   0   0
   187   236      0   0   0
   188   133      0   0   0
   188   243      0   0   0
   188   139      0   0   0
   188   140      0   0   0
   188   181      0   0   0
   188   182      0   0   0
   188   194      0   0   0
   188   195      0   0   0
   188   236      0   0   0
   188   237      0   0   0
   189   244      0   0   0
   189   127      0   0   1
   189   140      0   0   0
   189   182      0   0   0
   189   195      0   0   0
   189   196      0   0   0
   189   237      0   0   0
   189   238      0   0   0
   189   134      0   0   1
   189   176      0   0   1
   190   135      0   0   0
   190   203      0   1  -1
   190   141      0   0   0
   190   142      0   0   0
   190   183      0   0   0
   190   184      0   0   0
   190   239      0   0   0
   190   148      0   1   0
   190   154      0   1  -1
   190   245      0   0  -1
   191   136      0   0   0
   191   197      0   1   0
   191   142      0   0   0
   191   143      0   0   0
   191   184      0   0   0
   191   185      0   0   0
   191   239      0   0   0
   191   240      0   0   0
   191   148      0   1   0
   191   149      0   1   0
   192   137      0   0   0
   192   198      0   1   0
   192   143      0   0   0
   192   144      0   0   0
   192   185      0   0   0
   192   186      0   0   0
   192   240      0   0   0
   192   241      0   0   0
   192   149      0   1   0
   192   150      0   1   0
   193   138      0   0   0
   193   199      0   1   0
   193   144      0   0   0
   193   145      0   0   0
   193   186      0   0   0
   193   187      0   0   0
   193   241      0   0   0
   193   242      0   0   0
   193   150      0   1   0
   193   151      0   1   0
   194   139      0   0   0
   194   200      0   1   0
   194   145      0   0   0
   194   146      0   0   0
   194   187      0   0   0
   194   188      0   0   0
   194   242      0   0   0
   194   243      0   0   0
   194   151      0   1   0
   194   152      0   1   0
   195   140      0   0   0
   195   201      0   1   0
   195   146      0   0   0
   195   147      0   0   0
   195   188      0   0   0
   195   189      0   0   0
   195   243      0   0   0
   195   244      0   0   0
   195   152      0   1   0
   195   153      0   1   0
   196   202      0   1   0
   196   134      0   0   1
   196   147      0   0   0
   196   189      0   0   0
   196   244      0   0   0
   196   245      0   0   0
   196   153      0   1   0
   196   154      0   1   0
   196   141      0   0   1
   196   183      0   0   1
   197   191      0  -1   0
   197   259      0   0  -1
   197   148      0   0   0
   197   149      0   0   0
   197   204      0   0   0
   197   246      0   0   0
   197   239      0  -1   0
   197   240      0  -1   0
   197   210      0   0  -1
   197   252      0   0  -1
   198   253      0   0   0
   198   192      0  -1   0
   198   149      0   0   0
   198   150      0   0   0
   198   204      0   0   0
   198   205      0   0   0
   198   246      0   0   0
   198   247      0   0   0
   198   240      0  -1   0
   198   241      0  -1   0
   199   254      0   0   0
   199   193      0  -1   0
   199   150      0   0   0
   199   151      0   0   0
   199   205      0   0   0
   199   206      0   0   0
   199   247      0   0   0
   199   248      0   0   0
   199   241      0  -1   0
   199   242      0  -1   0
   200   255      0   0   0
   200   194      0  -1   0
   200   151      0   0   0
   200   152      0   0   0
   200   206      0   0   0
   200   207      0   0   0
   200   248      0   0   0
   200   249      0   0   0
   200   242      0  -1   0
   200   243      0  -1   0
   201   256      0   0   0
   201   195      0  -1   0
   201   152      0   0   0
   201   153      0   0   0
   201   207      0   0   0
   201   208      0   0   0
   201   249      0   0   0
   201   250      0   0   0
   201   243      0  -1   0
   201   244      0  -1   0
   202   257      0   0   0
   202   196      0  -1   0
   202   153      0   0   0
   202   154      0   0   0
   202   208      0   0   0
   202   209      0   0   0
   202   250      0   0   0
   202   251      0   0   0
   202   244      0  -1   0
   202   245      0  -1   0
   203   258      0   0   0
   203   190      0  -1   1
   203   154      0   0   0
   203   209      0   0   0
   203   210      0   0   0
   203   251      0   0   0
   203   252      0   0   0
   203   239      0  -1   1
   203   245      0  -1   0
   203   148      0   0   1
   204   149      0   0   0
   204   266      0   0  -1
   204   155      0   0   0
   204   156      0   0   0
   204   197      0   0   0
   204   198      0   0   0
   204   211      0   0   0
   204   253      0   0   0
   204   217      0   0  -1
   204   259      0   0  -1
   205   150      0   0   0
   205   260      0   0   0
   205   156      0   0   0
   205   157      0   0   0
   205   198      0   0   0
   205   199      0   0   0
   205   211      0   0   0
   205   212      0   0   0
   205   253      0   0   0
   205   254      0   0   0
   206   151      0   0   0
   206   261      0   0   0
   206   157      0   0   0
   206   158      0   0   0
   206   199      0   0   0
   206   200      0   0   0
   206   212      0   0   0
   206   213      0   0   0
   206   254      0   0   0
   206   255      0   0   0
   207   152      0   0   0
   207   262      0   0   0
   207   158      0   0   0
   207   159      0   0   0
   207   200      0   0   0
   207   201      0   0   0
   207   213      0   0   0
   207   214      0   0   0
   207   255      0   0   0
   207   256      0   0   0
   208   153      0   0   0
   208   263      0   0   0
   208   159      0   0   0
   208   160      0   0   0
   208   201      0   0   0
   208   202      0   0   0
   208   214      0   0   0
   208   215      0   0   0
   208   256      0   0   0
   208   257      0   0   0
   209   154      0   0   0
   209   264      0   0   0
   209   160      0   0   0
   209   161      0   0   0
   209   202      0   0   0
   209   203      0   0   0
   209   215      0   0   0
   209   216      0   0   0
   209   257      0   0   0
   209   258      0   0   0
   210   265      0   0   0
   210   148      0   0   1
   210   161      0   0   0
   210   203      0   0   0
   210   216      0   0   0
   210   217      0   0   0
   210   258      0   0   0
   210   259      0   0   0
   210   155      0   0   1
   210   197      0   0   1
   211   156      0   0   0
   211   273      0   0  -1
   211   162      0   0   0
   211   163      0   0   0
   211   204      0   0   0
   211   205      0   0   0
   211   218      0   0   0
   211   260      0   0   0
   211   224      0   0  -1
   211   266      0   0  -1
   212   157      0   0   0
   212   267      0   0   0
   212   163      0   0   0
   212   164      0   0   0
   212   205      0   0   0
   212   206      0   0   0
   212   218      0   0   0
   212   219      0   0   0
   212   260      0   0   0
   212   261      0   0   0
   213   158      0   0   0
   213   268      0   0   0
   213   164      0   0   0
   213   165      0   0   0
   213   206      0   0   0
   213   207      0   0   0
   213   219      0   0   0
   213   220      0   0   0
   213   261      0   0   0
   213   262      0   0   0
   214   159      0   0   0
   214   269      0   0   0
   214   165      0   0   0
   214   166      0   0   0
   214   207      0   0   0
   214   208      0   0   0
   214   220      0   0   0
   214   221      0   0   0
   214   262      0   0   0
   214   263      0   0   0
   215   160      0   0   0
   215   270      0   0   0
   215   166      0   0   0
   215   167      0   0   0
   215   208      0   0   0
   215   209      0   0   0
   215   221      0   0   0
   215   222      0   0   0
   215   263      0   0   0
   215   264      0   0   0
   216   161      0   0   0
   216   271      0   0   0
   216   167      0   0   0
   216   168      0   0   0
   216   209      0   0   0
   216   210      0   0   0
   216   222      0   0   0
   216   223      0   0   0
   216   264      0   0   0
   216   265      0   0   0
   217   272      0   0   0
   217   155      0   0   1
   217   168      0   0   0
   217   210      0   0   0
   217   223      0   0   0
   217   224      0   0   0
   217   265      0   0   0
   217   266      0   0   0
   217   162      0   0   1
   217   204      0   0   1
   218   163      0   0   0
   218   280      0   0  -1
   218   169      0   0   0
   218   170      0   0   0
   218   211      0   0   0
   218   212      0   0   0
   218   225      0   0   0
   218   267      0   0   0
   218   231      0   0  -1
   218   273      0   0  -1
   219   164      0   0   0
   219   274      0   0   0
   219   170      0   0   0
   219   171      0   0   0
   219   212      0   0   0
   219   213      0   0   0
   219   225      0   0   0
   219   226      0   0   0
   219   267      0   0   0
   219   268      0   0   0
   220   165      0   0   0
   220   275      0   0   0
   220   171      0   0   0
   220   172      0   0   0
   220   213      0   0   0
   220   214      0   0   0
   220   226      0   0   0
   220   227      0   0   0
   220   268      0   0   0
   220   269      0   0   0
   221   166      0   0   0
   221   276      0   0   0
   221   172      0   0   0
   221   173      0   0   0
   221   214      0   0   0
   221   215      0   0   0
   221   227      0   0   0
   221   228      0   0   0
   221   269      0   0   0
   221   270      0   0   0
   222   167      0   0   0
   222   277      0   0   0
   222   173      0   0   0
   222   174      0   0   0
   222   215      0   0   0
   222   216      0   0   0
   222   228      0   0   0
   222   229      0   0   0
   222   270      0   0   0
   222   271      0   0   0
   223   168      0   0   0
   223   278      0   0   0
   223   174      0   0   0
   223   175      0   0   0
   223   216      0   0   0
   223   217      0   0   0
   223   229      0   0   0
   223   230      0   0   0
   223   271      0   0   0
   223   272      0   0   0
   224   279      0   0   0
   224   162      0   0   1
   224   175      0   0   0
   224   217      0   0   0
   224   230      0   0   0
   224   231      0   0   0
   224   272      0   0   0
   224   273      0   0   0
   224   169      0   0   1
   224   211      0   0   1
   225   170      0   0   0
   225   287      0   0  -1
   225   176      0   0   0
   225   177      0   0   0
   225   218      0   0   0
   225   219      0   0   0
   225   232      0   0   0
   225   274      0   0   0
   225   238      0   0  -1
   225   280      0   0  -1
   226   171      0   0   0
   226   281      0   0   0
   226   177      0   0   0
   226   178      0   0   0
   226   219      0   0   0
   226   220      0   0   0
   226   232      0   0   0
   226   233      0   0   0
   226   274      0   0   0
   226   275      0   0   0
   227   172      0   0   0
   227   282      0   0   0
   227   178      0   0   0
   227   179      0   0   0
   227   220      0   0   0
   227   221      0   0   0
   227   233      0   0   0
   227   234      0   0   0
   227   275      0   0   0
   227   276      0   0   0
   228   173      0   0   0
   228   283      0   0   0
   228   179      0   0   0
   228   180      0   0   0
   228   221      0   0   0
   228   222      0   0   0
   228   234      0   0   0
   228   235      0   0   0
   228   276      0   0   0
   228   277      0   0   0
   229   174      0   0   0
   229   284      0   0   0
   229   180      0   0   0
   229   181      0   0   0
   229   222      0   0   0
   229   223      0   0   0
   229   235      0   0   0
   229   236      0   0   0
   229   277      0   0   0
   229   278      0   0   0
   230   175      0   0   0
   230   285      0   0   0
   230   181      0   0   0
   230   182      0   0   0
   230   223      0   0   0
   230   224      0   0   0
   230   236      0   0   0
   230   237      0   0   0
   230   278      0   0   0
   230   279      0   0   0
   231   286      0   0   0
   231   169      0   0   1
   231   182      0   0   0
   231   224      0   0   0
   231   237      0   0   0
   231   238      0   0   0
   231   279      0   0   0
   231   280      0   0   0
   231   176      0   0   1
[...]
   273   279      0   0   0
   273   280      0   0   0
   273   321      0   0   0
   273   322      0   0   0
   273   218      0   0   1
   273   260      0   0   1
   274   219      0   0   0
   274   336      0   0  -1
   274   225      0   0   0
   274   226      0   0   0
   274   267      0   0   0
   274   268      0   0   0
   274   281      0   0   0
   274   323      0   0   0
   274   287      0   0  -1
   274   329      0   0  -1
   275   220      0   0   0
   275   330      0   0   0
   275   226      0   0   0
   275   227      0   0   0
   275   268      0   0   0
   275   269      0   0   0
   275   281      0   0   0
   275   282      0   0   0
   275   323      0   0   0
   275   324      0   0   0
   276   221      0   0   0
   276   331      0   0   0
   276   227      0   0   0
   276   228      0   0   0
   276   269      0   0   0
   276   270      0   0   0
   276   282      0   0   0
   276   283      0   0   0
   276   324      0   0   0
   276   325      0   0   0
   277   222      0   0   0
   277   332      0   0   0
   277   228      0   0   0
   277   229      0   0   0
   277   270      0   0   0
   277   271      0   0   0
   277   283      0   0   0
   277   284      0   0   0
   277   325      0   0   0
   277   326      0   0   0
   278   223      0   0   0
   278   333      0   0   0
   278   229      0   0   0
   278   230      0   0   0
   278   271      0   0   0
   278   272      0   0   0
   278   284      0   0   0
   278   285      0   0   0
   278   326      0   0   0
   278   327      0   0   0
   279   224      0   0   0
   279   334      0   0   0
   279   230      0   0   0
   279   231      0   0   0
   279   272      0   0   0
   279   273      0   0   0
   279   285      0   0   0
   279   286      0   0   0
   279   327      0   0   0
   279   328      0   0   0
   280   335      0   0   0
   280   218      0   0   1
   280   231      0   0   0
   280   273      0   0   0
   280   286      0   0   0
   280   287      0   0   0
   280   328      0   0   0
   280   329      0   0   0
   280   225      0   0   1
   280   267      0   0   1
   281   226      0   0   0
   281   343      0   0  -1
   281   232      0   0   0
   281   233      0   0   0
   281   274      0   0   0
   281   275      0   0   0
   281   288      0   0   0
   281   330      0   0   0
   281   294      0   0  -1
   281   336      0   0  -1
   282   227      0   0   0
   282   337      0   0   0
   282   233      0   0   0
   282   234      0   0   0
   282   275      0   0   0
   282   276      0   0   0
   282   288      0   0   0
   282   289      0   0   0
   282   330      0   0   0
   282   331      0   0   0
   283   228      0   0   0
   283   338      0   0   0
   283   234      0   0   0
   283   235      0   0   0
   283   276      0   0   0
   283   277      0   0   0
   283   289      0   0   0
   283   290      0   0   0
   283   331      0   0   0
   283   332      0   0   0
   284   229      0   0   0
   284   339      0   0   0
   284   235      0   0   0
   284   236      0   0   0
   284   277      0   0   0
   284   278      0   0   0
   284   290      0   0   0
   284   291      0   0   0
   284   332      0   0   0
   284   333      0   0   0
   285   230      0   0   0
   285   340      0   0   0
   285   236      0   0   0
   285   237      0   0   0
   285   278      0   0   0
   285   279      0   0   0
   285   291      0   0   0
   285   292      0   0   0
   285   333      0   0   0
   285   334      0   0   0
   286   231      0   0   0
   286   341      0   0   0
   286   237      0   0   0
   286   238      0   0   0
   286   279      0   0   0
   286   280      0   0   0
   286   292      0   0   0
   286   293      0   0   0
   286   334      0   0   0
   286   335      0   0   0
   287   342      0   0   0
   287   225      0   0   1
   287   238      0   0   0
   287   280      0   0   0
   287   293      0   0   0
   287   294      0   0   0
   287   335      0   0   0
   287   336      0   0   0
   287   232      0   0   1
   287   274      0   0   1
   288   233      0   0   0
   288   301      0   1  -1
   288   239      0   0   0
   288   240      0   0   0
   288   281      0   0   0
   288   282      0   0   0
   288   337      0   0   0
   288   246      0   1   0
   288   252      0   1  -1
   288   343      0   0  -1
   289   234      0   0   0
   289   295      0   1   0
   289   240      0   0   0
   289   241      0   0   0
   289   282      0   0   0
   289   283      0   0   0
   289   337      0   0   0
   289   338      0   0   0
   289   246      0   1   0
   289   247      0   1   0
   290   235      0   0   0
   290   296      0   1   0
   290   241      0   0   0
   290   242      0   0   0
   290   283      0   0   0
   290   284      0   0   0
   290   338      0   0   0
   290   339      0   0   0
   290   247      0   1   0
   290   248      0   1   0
   291   236      0   0   0
   291   297      0   1   0
   291   242      0   0   0
   291   243      0   0   0
   291   284      0   0   0
   291   285      0   0   0
   291   339      0   0   0
   291   340      0   0   0
   291   248      0   1   0
   291   249      0   1   0
   292   237      0   0   0
   292   298      0   1   0
   292   243      0   0   0
   292   244      0   0   0
   292   285      0   0   0
   292   286      0   0   0
   292   340      0   0   0
   292   341      0   0   0
   292   249      0   1   0
   292   250      0   1   0
   293   238      0   0   0
   293   299      0   1   0
   293   244      0   0   0
   293   245      0   0   0
   293   286      0   0   0
   293   287      0   0   0
   293   341      0   0   0
   293   342      0   0   0
   293   250      0   1   0
   293   251      0   1   0
   294   300      0   1   0
   294   232      0   0   1
   294   245      0   0   0
   294   287      0   0   0
   294   342      0   0   0
   294   343      0   0   0
   294   251      0   1   0
   294   252      0   1   0
   294   239      0   0   1
   294   281      0   0   1
   295    14      1   0  -1
   295   289      0  -1   0
   295   246      0   0   0
   295   247      0   0   0
   295   302      0   0   0
   295     1      1   0   0
   295     7      1   0  -1
   295   337      0  -1   0
   295   338      0  -1   0
   295   308      0   0  -1
   296     8      1   0   0
   296   290      0  -1   0
   296   247      0   0   0
   296   248      0   0   0
   296   302      0   0   0
   296   303      0   0   0
   296     1      1   0   0
   296     2      1   0   0
   296   338      0  -1   0
   296   339      0  -1   0
   297     9      1   0   0
   297   291      0  -1   0
   297   248      0   0   0
   297   249      0   0   0
   297   303      0   0   0
   297   304      0   0   0
   297     2      1   0   0
   297     3      1   0   0
   297   339      0  -1   0
   297   340      0  -1   0
   298    10      1   0   0
   298   292      0  -1   0
   298   249      0   0   0
   298   250      0   0   0
   298   304      0   0   0
   298   305      0   0   0
   298     3      1   0   0
   298     4      1   0   0
   298   340      0  -1   0
   298   341      0  -1   0
   299    11      1   0   0
   299   293      0  -1   0
   299   250      0   0   0
   299   251      0   0   0
   299   305      0   0   0
   299   306      0   0   0
   299     4      1   0   0
   299     5      1   0   0
   299   341      0  -1   0
   299   342      0  -1   0
   300    12      1   0   0
   300   294      0  -1   0
   300   251      0   0   0
   300   252      0   0   0
   300   306      0   0   0
   300   307      0   0   0
   300     5      1   0   0
   300     6      1   0   0
   300   342      0  -1   0
   300   343      0  -1   0
   301    13      1   0   0
   301   288      0  -1   1
   301   252      0   0   0
   301   307      0   0   0
   301   308      0   0   0
   301     6      1   0   0
   301     7      1   0   0
   301   337      0  -1   1
   301   343      0  -1   0
   301   246      0   0   1
   302   247      0   0   0
   302    21      1   0  -1
   302   253      0   0   0
   302   254      0   0   0
   302   295      0   0   0
   302   296      0   0   0
   302   309      0   0   0
   302     8      1   0   0
   302    14      1   0  -1
   302   315      0   0  -1
   303   248      0   0   0
   303    15      1   0   0
   303   254      0   0   0
   303   255      0   0   0
   303   296      0   0   0
   303   297      0   0   0
   303   309      0   0   0
   303   310      0   0   0
   303     8      1   0   0
   303     9      1   0   0
   304   249      0   0   0
   304    16      1   0   0
   304   255      0   0   0
   304   256      0   0   0
   304   297      0   0   0
   304   298      0   0   0
   304   310      0   0   0
   304   311      0   0   0
   304     9      1   0   0
   304    10      1   0   0
   305   250      0   0   0
   305    17      1   0   0
   305   256      0   0   0
   305   257      0   0   0
   305   298      0   0   0
   305   299      0   0   0
   305   311      0   0   0
   305   312      0   0   0
   305    10      1   0   0
   305    11      1   0   0
   306   251      0   0   0
   306    18      1   0   0
   306   257      0   0   0
   306   258      0   0   0
   306   299      0   0   0
   306   300      0   0   0
   306   312      0   0   0
   306   313      0   0   0
   306    11      1   0   0
   306    12      1   0   0
   307   252      0   0   0
   307    19      1   0   0
   307   258      0   0   0
   307   259      0   0   0
   307   300      0   0   0
   307   301      0   0   0
   307   313      0   0   0
   307   314      0   0   0
   307    12      1   0   0
   307    13      1   0   0
   308    20      1   0   0
   308   246      0   0   1
   308   259      0   0   0
   308   301      0   0   0
   308   314      0   0   0
   308   315      0   0   0
   308    13      1   0   0
   308    14      1   0   0
   308   253      0   0   1
   308   295      0   0   1
   309   254      0   0   0
   309    28      1   0  -1
   309   260      0   0   0
   309   261      0   0   0
   309   302      0   0   0
   309   303      0   0   0
   309   316      0   0   0
   309    15      1   0   0
   309    21      1   0  -1
   309   322      0   0  -1
   310   255      0   0   0
   310    22      1   0   0
   310   261      0   0   0
   310   262      0   0   0
   310   303      0   0   0
   310   304      0   0   0
   310   316      0   0   0
   310   317      0   0   0
   310    15      1   0   0
   310    16      1   0   0
   311   256      0   0   0
   311    23      1   0   0
   311   262      0   0   0
   311   263      0   0   0
   311   304      0   0   0
   311   305      0   0   0
   311   317      0   0   0
   311   318      0   0   0
   311    16      1   0   0
   311    17      1   0   0
   312   257      0   0   0
   312    24      1   0   0
   312   263      0   0   0
   312   264      0   0   0
   312   305      0   0   0
   312   306      0   0   0
   312   318      0   0   0
   312   319      0   0   0
   312    17      1   0   0
   312    18      1   0   0
   313   258      0   0   0
   313    25      1   0   0
   313   264      0   0   0
   313   265      0   0   0
   313   306      0   0   0
   313   307      0   0   0
   313   319      0   0   0
   313   320      0   0   0
   313    18      1   0   0
   313    19      1   0   0
   314   259      0   0   0
   314    26      1   0   0
   314   265      0   0   0
   314   266      0   0   0
   314   307      0   0   0
   314   308      0   0   0
   314   320      0   0   0
   314   321      0   0   0
   314    19      1   0   0
   314    20      1   0   0
   315    27      1   0   0
   315   253      0   0   1
   315   266      0   0   0
   315   308      0   0   0
   315   321      0   0   0
   315   322      0   0   0
   315    20      1   0   0
   315    21      1   0   0
   315   260      0   0   1
   315   302      0   0   1
   316   261      0   0   0
   316    35      1   0  -1
   316   267      0   0   0
   316   268      0   0   0
   316   309      0   0   0
   316   310      0   0   0
   316   323      0   0   0
   316    22      1   0   0
   316    28      1   0  -1
   316   329      0   0  -1
   317   262      0   0   0
   317    29      1   0   0
   317   268      0   0   0
   317   269      0   0   0
   317   310      0   0   0
   317   311      0   0   0
   317   323      0   0   0
   317   324      0   0   0
   317    22      1   0   0
   317    23      1   0   0
   318   263      0   0   0
   318    30      1   0   0
   318   269      0   0   0
   318   270      0   0   0
   318   311      0   0   0
   318   312      0   0   0
   318   324      0   0   0
   318   325      0   0   0
   318    23      1   0   0
   318    24      1   0   0
   319   264      0   0   0
   319    31      1   0   0
   319   270      0   0   0
   319   271      0   0   0
   319   312      0   0   0
   319   313      0   0   0
   319   325      0   0   0
   319   326      0   0   0
   319    24      1   0   0
   319    25      1   0   0
   320   265      0   0   0
   320    32      1   0   0
   320   271      0   0   0
   320   272      0   0   0
   320   313      0   0   0
   320   314      0   0   0
   320   326      0   0   0
   320   327      0   0   0
   320    25      1   0   0
   320    26      1   0   0
   321   266      0   0   0
   321    33      1   0   0
   321   272      0   0   0
   321   273      0   0   0
   321   314      0   0   0
   321   315      0   0   0
   321   327      0   0   0
   321   328      0   0   0
   321    26      1   0   0
   321    27      1   0   0
   322    34      1   0   0
   322   260      0   0   1
   322   273      0   0   0
   322   315      0   0   0
   322   328      0   0   0
   322   329      0   0   0
   322    27      1   0   0
   322    28      1   0   0
   322   267      0   0   1
   322   309      0   0   1
   323   268      0   0   0
   323    42      1   0  -1
   323   274      0   0   0
   323   275      0   0   0
   323   316      0   0   0
   323   317      0   0   0
   323   330      0   0   0
   323    29      1   0   0
   323    35      1   0  -1
   323   336      0   0  -1
   324   269      0   0   0
   324    36      1   0   0
   324   275      0   0   0
   324   276      0   0   0
   324   317      0   0   0
   324   318      0   0   0
   324   330      0   0   0
   324   331      0   0   0
   324    29      1   0   0
   324    30      1   0   0
   325   270      0   0   0
   325    37      1   0   0
   325   276      0   0   0
   325   277      0   0   0
   325   318      0   0   0
   325   319      0   0   0
   325   331      0   0   0
   325   332      0   0   0
   325    30      1   0   0
   325    31      1   0   0
   326   271      0   0   0
   326    38      1   0   0
   326   277      0   0   0
   326   278      0   0   0
   326   319      0   0   0
   326   320      0   0   0
   326   332      0   0   0
   326   333      0   0   0
   326    31      1   0   0
   326    32      1   0   0
   327   272      0   0   0
   327    39      1   0   0
   327   278      0   0   0
   327   279      0   0   0
   327   320      0   0   0
   327   321      0   0   0
   327   333      0   0   0
   327   334      0   0   0
   327    32      1   0   0
   327    33      1   0   0
   328   273      0   0   0
   328    40      1   0   0
   328   279      0   0   0
   328   280      0   0   0
   328   321      0   0   0
   328   322      0   0   0
   328   334      0   0   0
   328   335      0   0   0
   328    33      1   0   0
   328    34      1   0   0
   329    41      1   0   0
   329   267      0   0   1
   329   280      0   0   0
   329   322      0   0   0
   329   335      0   0   0
   329   336      0   0   0
   329    34      1   0   0
   329    35      1   0   0
   329   274      0   0   1
   329   316      0   0   1
   330   275      0   0   0
   330    49      1   0  -1
   330   281      0   0   0
   330   282      0   0   0
   330   323      0   0   0
   330   324      0   0   0
   330   337      0   0   0
   330    36      1   0   0
   330    42      1   0  -1
   330   343      0   0  -1
   331   276      0   0   0
   331    43      1   0   0
   331   282      0   0   0
   331   283      0   0   0
   331   324      0   0   0
   331   325      0   0   0
   331   337      0   0   0
   331   338      0   0   0
   331    36      1   0   0
   331    37      1   0   0
   332   277      0   0   0
   332    44      1   0   0
   332   283      0   0   0
   332   284      0   0   0
   332   325      0   0   0
   332   326      0   0   0
   332   338      0   0   0
   332   339      0   0   0
   332    37      1   0   0
   332    38      1   0   0
   333   278      0   0   0
   333    45      1   0   0
   333   284      0   0   0
   333   285      0   0   0
   333   326      0   0   0
   333   327      0   0   0
   333   339      0   0   0
   333   340      0   0   0
   333    38      1   0   0
   333    39      1   0   0
   334   279      0   0   0
   334    46      1   0   0
   334   285      0   0   0
   334   286      0   0   0
   334   327      0   0   0
   334   328      0   0   0
   334   340      0   0   0
   334   341      0   0   0
   334    39      1   0   0
   334    40      1   0   0
   335   280      0   0   0
   335    47      1   0   0
   335   286      0   0   0
   335   287      0   0   0
   335   328      0   0   0
   335   329      0   0   0
   335   341      0   0   0
   335   342      0   0   0
   335    40      1   0   0
   335    41      1   0   0
   336    48      1   0   0
   336   274      0   0   1
   336   287      0   0   0
   336   329      0   0   0
   336   342      0   0   0
   336   343      0   0   0
   336    41      1   0   0
   336    42      1   0   0
   336   281      0   0   1
   336   323      0   0   1
   337   282      0   0   0
   337     7      1   1  -1
   337   288      0   0   0
   337   289      0   0   0
   337   330      0   0   0
   337   331      0   0   0
   337    43      1   0   0
   337    49      1   0  -1
   337   295      0   1   0
   337   301      0   1  -1
   338   283      0   0   0
   338     1      1   1   0
   338   289      0   0   0
   338   290      0   0   0
   338   331      0   0   0
   338   332      0   0   0
   338    43      1   0   0
   338    44      1   0   0
   338   295      0   1   0
   338   296      0   1   0
   339   284      0   0   0
   339     2      1   1   0
   339   290      0   0   0
   339   291      0   0   0
   339   332      0   0   0
   339   333      0   0   0
   339    44      1   0   0
   339    45      1   0   0
   339   296      0   1   0
   339   297      0   1   0
   340   285      0   0   0
   340     3      1   1   0
   340   291      0   0   0
   340   292      0   0   0
   340   333      0   0   0
   340   334      0   0   0
   340    45      1   0   0
   340    46      1   0   0
   340   297      0   1   0
   340   298      0   1   0
   341   286      0   0   0
   341     4      1   1   0
   341   292      0   0   0
   341   293      0   0   0
   341   334      0   0   0
   341   335      0   0   0
   341    46      1   0   0
   341    47      1   0   0
   341   298      0   1   0
   341   299      0   1   0
   342   287      0   0   0
   342     5      1   1   0
   342   293      0   0   0
   342   294      0   0   0
   342   335      0   0   0
   342   336      0   0   0
   342    47      1   0   0
   342    48      1   0   0
   342   299      0   1   0
   342   300      0   1   0
   343   281      0   0   1
   343     6      1   1   0
   343   294      0   0   0
   343   336      0   0   0
   343    48      1   0   0
   343    49      1   0   0
   343   300      0   1   0
   343   301      0   1   0
   343   288      0   0   1
   343   330      0   0   1
end nnkpts

begin exclude_bands
  35
   1
   2
   3
   4
   5
   6
   7
   8
   9
  10
  11
  12
  13
  14
  15
  16
  17
  18
  19
  20
  21
  22
  23
  24
  25
  26
  27
  28
  34
  35
  36
  37
  38
  39
  40
end exclude_bands
