
             +---------------------------------------------------+
             |                                                   |
             |                   WANNIER90                       |
             |                                                   |
             +---------------------------------------------------+
             |                                                   |
             |        Welcome to the Maximally-Localized         |
             |        Generalized Wannier Functions code         |
             |            http://www.wannier.org                 |
             |                                                   |
             |                                                   |
             |  Wannier90 Developer Group:                       |
             |    Giovanni Pizzi    (EPFL)                       |
             |    Valerio Vitale    (Cambridge)                  |
             |    David Vanderbilt  (Rutgers University)         |
             |    Nicola Marzari    (EPFL)                       |
             |    Ivo Souza         (Universidad del Pais Vasco) |
             |    Arash A. Mostofi  (Imperial College London)    |
             |    Jonathan R. Yates (University of Oxford)       |
             |                                                   |
             |  For the full list of Wannier90 3.x authors,      |
             |  please check the code documentation and the      |
             |  README on the GitHub page of the code            |
             |                                                   |
             |                                                   |
             |  Please cite                                      |
             |                                                   |
             |  [ref] "Wannier90 as a community code:            |
             |        new features and applications",            |
             |        G. Pizzi et al., J. Phys. Cond. Matt. 32,  |
             |        165902 (2020).                             |
             |        http://doi.org/10.1088/1361-648X/ab51ff    |
             |                                                   |
             |  in any publications arising from the use of      |
             |  this code. For the method please cite            |
             |                                                   |
             |  [ref] "Maximally Localized Generalised Wannier   |
             |         Functions for Composite Energy Bands"     |
             |         N. Marzari and D. Vanderbilt              |
             |         Phys. Rev. B 56 12847 (1997)              |
             |                                                   |
             |  [ref] "Maximally Localized Wannier Functions     |
             |         for Entangled Energy Bands"               |
             |         I. Souza, N. Marzari and D. Vanderbilt    |
             |         Phys. Rev. B 65 035109 (2001)             |
             |                                                   |
             |                                                   |
             | Copyright (c) 1996-2020                           |
             |        The Wannier90 Developer Group and          |
             |        individual contributors                    |
             |                                                   |
             |      Release: 3.1.0        5th March    2020      |
             |                                                   |
             | This program is free software; you can            |
             | redistribute it and/or modify it under the terms  |
             | of the GNU General Public License as published by |
             | the Free Software Foundation; either version 2 of |
             | the License, or (at your option) any later version|
             |                                                   |
             | This program is distributed in the hope that it   |
             | will be useful, but WITHOUT ANY WARRANTY; without |
             | even the implied warranty of MERCHANTABILITY or   |
             | FITNESS FOR A PARTICULAR PURPOSE. See the GNU     |
             | General Public License for more details.          |
             |                                                   |
             | You should have received a copy of the GNU General|
             | Public License along with this program; if not,   |
             | write to the Free Software Foundation, Inc.,      |
             | 675 Mass Ave, Cambridge, MA 02139, USA.           |
             |                                                   |
             +---------------------------------------------------+
             |    Execution started on  1May2022 at 09:28:18     |
             +---------------------------------------------------+
 
 ******************************************************************************
 * -> Using CODATA 2006 constant values                                       *
 *    (http://physics.nist.gov/cuu/Constants/index.html)                      *
 * -> Using Bohr value from CODATA                                            *
 ******************************************************************************
 

 Running in serial (with parallel executable)

                                    ------
                                    SYSTEM
                                    ------

                              Lattice Vectors (Ang)
                    a_1    -1.805023   0.000000   1.805023
                    a_2     0.000000   1.805023   1.805023
                    a_3    -1.805023   1.805023   0.000000

                   Unit Cell Volume:      11.76193  (Ang^3)

                        Reciprocal-Space Vectors (Ang^-1)
                    b_1    -1.740472  -1.740472   1.740472
                    b_2     1.740472   1.740472   1.740472
                    b_3    -1.740472   1.740472  -1.740472
  
 *----------------------------------------------------------------------------*
 |   Site       Fractional Coordinate          Cartesian Coordinate (Ang)     |
 +----------------------------------------------------------------------------+
 | Cu   1   0.00000   0.00000   0.00000   |    0.00000   0.00000   0.00000    |
 *----------------------------------------------------------------------------*
                                ------------
                                K-POINT GRID
                                ------------
  
             Grid size =  8 x  8 x  8      Total points =  512
  
  
 *---------------------------------- MAIN ------------------------------------*
 |  Number of Wannier Functions               :                 6             |
 |  Number of Objective Wannier Functions     :                 6             |
 |  Number of input Bloch states              :                10             |
 |  Output verbosity (1=low, 5=high)          :                 1             |
 |  Timing Level (1=low, 5=high)              :                 1             |
 |  Optimisation (0=memory, 3=speed)          :                 3             |
 |  Length Unit                               :               Ang             |
 |  Post-processing setup (write *.nnkp)      :                 F             |
 |  Using Gamma-only branch of algorithms     :                 F             |
 |  Using symmetry-adapted WF mode            :                 T             |
 |  Tolerance for symmetry condition on U     :         0.100E-08             |
 |  Wavefunction (UNK) file-type              :       unformatted             |
 |  Wavefunction spin channel                 :                up             |
 *----------------------------------------------------------------------------*
 *------------------------------- WANNIERISE ---------------------------------*
 |  Total number of iterations                :               100             |
 |  Number of CG steps before reset           :                 5             |
 |  Trial step length for line search         :             2.000             |
 |  Convergence tolerence                     :         0.100E-09             |
 |  Convergence window                        :                -1             |
 |  Iterations between writing output         :                 1             |
 |  Iterations between backing up to disk     :               100             |
 |  Write r^2_nm to file                      :                 F             |
 |  Write xyz WF centres to file              :                 F             |
 |  Write on-site energies <0n|H|0n> to file  :                 F             |
 |  Use guiding centre to control phases      :                 F             |
 |  Use phases for initial projections        :                 F             |
 *----------------------------------------------------------------------------*
 *------------------------------- DISENTANGLE --------------------------------*
 |  Using band disentanglement                :                 T             |
 |  Total number of iterations                :               200             |
 |  Mixing ratio                              :             0.500             |
 |  Convergence tolerence                     :         1.000E-10             |
 |  Convergence window                        :                 3             |
 *----------------------------------------------------------------------------*
 *-------------------------------- PLOTTING ----------------------------------*
 |  Plotting Wannier functions                :                 T             |
 |   Size of supercell for plotting           :     3x    3x    3             |
 |   Plotting mode (molecule or crystal)      :           crystal             |
 |   Plotting format                          :          xcrysden             |
 *----------------------------------------------------------------------------*
 |  Plotting interpolated bandstructure       :                 T             |
 |   Number of K-path sections                :                 6             |
 |   Divisions along first K-path section     :               100             |
 |   Output format                            :           gnuplot             |
 |   Output mode                              :               s-k             |
 *----------------------------------------------------------------------------*
 |   K-space path sections:                                                   |
 |    From: L       0.500  0.500  0.500     To: G       0.000  0.000  0.000   |
 |    From: G       0.000  0.000  0.000     To: X       0.500  0.000  0.500   |
 |    From: X       0.500  0.000  0.500     To: W       0.500  0.250  0.750   |
 |    From: W       0.500  0.250  0.750     To: L       0.500  0.500  0.500   |
 |    From: L       0.500  0.500  0.500     To: K       0.750  0.375  0.375   |
 |    From: K       0.750  0.375  0.375     To: G       0.000  0.000  0.000   |
 *----------------------------------------------------------------------------*
 |  Plotting Hamiltonian in WF basis          :                 T             |
 *----------------------------------------------------------------------------*
 Time to read parameters        0.073 (sec)

 *---------------------------------- K-MESH ----------------------------------*
 +----------------------------------------------------------------------------+
 |                    Distance to Nearest-Neighbour Shells                    |
 |                    ------------------------------------                    |
 |          Shell             Distance (Ang^-1)          Multiplicity         |
 |          -----             -----------------          ------------         |
 |             1                   0.376823                      8            |
 |             2                   0.435118                      6            |
 |             3                   0.615350                     12            |
 |             4                   0.721562                     24            |
 |             5                   0.753646                      8            |
 |             6                   0.870236                      6            |
 |             7                   0.948318                     24            |
 |             8                   0.972953                     24            |
 |             9                   1.065817                     24            |
 |            10                   1.130470                     32            |
 |            11                   1.230700                     12            |
 |            12                   1.287096                     48            |
 |            13                   1.305354                     30            |
 |            14                   1.375964                     24            |
 |            15                   1.426630                     24            |
 |            16                   1.443123                     24            |
 |            17                   1.507293                      8            |
 |            18                   1.553682                     48            |
 |            19                   1.568840                     24            |
 |            20                   1.628062                     48            |
 |            21                   1.671102                     72            |
 |            22                   1.740472                      6            |
 |            23                   1.780797                     24            |
 |            24                   1.794037                     48            |
 |            25                   1.846049                     36            |
 |            26                   1.884116                     56            |
 |            27                   1.896635                     24            |
 |            28                   1.945907                     24            |
 |            29                   1.982057                     72            |
 |            30                   1.993961                     48            |
 |            31                   2.040884                     24            |
 |            32                   2.075380                     48            |
 |            33                   2.131634                     24            |
 |            34                   2.164685                     72            |
 |            35                   2.175590                     30            |
 |            36                   2.218675                     72            |
 +----------------------------------------------------------------------------+
 | The b-vectors are chosen automatically                                     |
 | The following shells are used:   1                                         |
 +----------------------------------------------------------------------------+
 |                        Shell   # Nearest-Neighbours                        |
 |                        -----   --------------------                        |
 |                          1               8                                 |
 +----------------------------------------------------------------------------+
 | Completeness relation is fully satisfied [Eq. (B1), PRB 56, 12847 (1997)]  |
 +----------------------------------------------------------------------------+
 |                  b_k Vectors (Ang^-1) and Weights (Ang^2)                  |
 |                  ----------------------------------------                  |
 |            No.         b_k(x)      b_k(y)      b_k(z)        w_b           |
 |            ---        --------------------------------     --------        |
 |             1         0.217559    0.217559    0.217559     2.640924        |
 |             2        -0.217559   -0.217559    0.217559     2.640924        |
 |             3        -0.217559    0.217559   -0.217559     2.640924        |
 |             4        -0.217559    0.217559    0.217559     2.640924        |
 |             5         0.217559   -0.217559    0.217559     2.640924        |
 |             6        -0.217559   -0.217559   -0.217559     2.640924        |
 |             7         0.217559    0.217559   -0.217559     2.640924        |
 |             8         0.217559   -0.217559   -0.217559     2.640924        |
 +----------------------------------------------------------------------------+
 |                           b_k Directions (Ang^-1)                          |
 |                           -----------------------                          |
 |            No.           x           y           z                         |
 |            ---        --------------------------------                     |
 |             1         0.217559    0.217559    0.217559                     |
 |             2        -0.217559   -0.217559    0.217559                     |
 |             3        -0.217559    0.217559   -0.217559                     |
 |             4        -0.217559    0.217559    0.217559                     |
 +----------------------------------------------------------------------------+
  
 Time to get kmesh              0.238 (sec)
 *============================================================================*
 |                              MEMORY ESTIMATE                               |
 |         Maximum RAM allocated during each phase of the calculation         |
 *============================================================================*
 |                        Disentanglement           10.04 Mb                  |
 |                            Wannierise:            7.27 Mb                  |
 |                          plot_wannier:            7.27 Mb                  |
 *----------------------------------------------------------------------------*
  
 Starting a new Wannier90 calculation ...


 Reading overlaps from Cu.mmn    :  Created on  1May2022 at  9:28:11

 Reading projections from Cu.amn :  Created on  1May2022 at  9:27:47

 Time to read overlaps          0.720 (sec)

 *------------------------------- DISENTANGLE --------------------------------*
 +----------------------------------------------------------------------------+
 |                              Energy  Windows                               |
 |                              ---------------                               |
 |                   Outer:    4.68900  to   24.68900  (eV)                   |
 |                   No frozen states were specified                          |
 +----------------------------------------------------------------------------+
   Number of target bands to extract:    6

                   Unitarised projection of Wannier functions                  
                   ------------------------------------------                  
   A_mn = <psi_m|g_n> --> S = A.A^+ --> U = S^-1/2.A
   In dis_project... done
   No inner window (linner = F)

                   Extraction of optimally-connected subspace                  
                   ------------------------------------------                  
 +---------------------------------------------------------------------+<-- DIS
 |  Iter     Omega_I(i-1)      Omega_I(i)      Delta (frac.)    Time   |<-- DIS
 +---------------------------------------------------------------------+<-- DIS
       1       4.33998874       4.19838456       3.373E-02      0.00    <-- DIS
       2       4.26514557       4.17054647       2.268E-02      0.03    <-- DIS
       3       4.21555980       4.15401892       1.481E-02      0.06    <-- DIS
       4       4.18327411       4.14292034       9.740E-03      0.09    <-- DIS
       5       4.16203819       4.13508529       6.518E-03      0.11    <-- DIS
       6       4.14778889       4.12931364       4.474E-03      0.14    <-- DIS
       7       4.13796426       4.12489159       3.169E-03      0.17    <-- DIS
       8       4.13096564       4.12138219       2.325E-03      0.20    <-- DIS
       9       4.12579827       4.11851196       1.769E-03      0.23    <-- DIS
      10       4.12184187       4.11610597       1.394E-03      0.25    <-- DIS
      11       4.11870731       4.11404980       1.132E-03      0.28    <-- DIS
      12       4.11614803       4.11226658       9.439E-04      0.31    <-- DIS
      13       4.11400566       4.11070319       8.034E-04      0.34    <-- DIS
      14       4.11217653       4.10932167       6.947E-04      0.37    <-- DIS
      15       4.11059119       4.10809394       6.079E-04      0.39    <-- DIS
      16       4.10920179       4.10699851       5.365E-04      0.42    <-- DIS
      17       4.10797426       4.10601835       4.764E-04      0.45    <-- DIS
      18       4.10688348       4.10513959       4.248E-04      0.47    <-- DIS
      19       4.10591027       4.10435064       3.800E-04      0.50    <-- DIS
      20       4.10503947       4.10364162       3.406E-04      0.53    <-- DIS
      21       4.10425873       4.10300399       3.058E-04      0.55    <-- DIS
      22       4.10355776       4.10243028       2.748E-04      0.58    <-- DIS
      23       4.10292777       4.10191388       2.472E-04      0.61    <-- DIS
      24       4.10236118       4.10144894       2.224E-04      0.63    <-- DIS
      25       4.10185136       4.10103025       2.002E-04      0.66    <-- DIS
      26       4.10139243       4.10065315       1.803E-04      0.69    <-- DIS
      27       4.10097922       4.10031345       1.624E-04      0.71    <-- DIS
      28       4.10060709       4.10000742       1.463E-04      0.74    <-- DIS
      29       4.10027189       4.09973169       1.318E-04      0.77    <-- DIS
      30       4.09996993       4.09948324       1.187E-04      0.79    <-- DIS
      31       4.09969787       4.09925936       1.070E-04      0.82    <-- DIS
      32       4.09945274       4.09905759       9.640E-05      0.84    <-- DIS
      33       4.09923184       4.09887574       8.688E-05      0.87    <-- DIS
      34       4.09903277       4.09871184       7.830E-05      0.90    <-- DIS
      35       4.09885336       4.09856410       7.058E-05      0.92    <-- DIS
      36       4.09869165       4.09843092       6.362E-05      0.95    <-- DIS
      37       4.09854589       4.09831087       5.735E-05      0.98    <-- DIS
      38       4.09841450       4.09820263       5.170E-05      1.00    <-- DIS
      39       4.09829605       4.09810505       4.661E-05      1.03    <-- DIS
      40       4.09818927       4.09801706       4.202E-05      1.06    <-- DIS
      41       4.09809299       4.09793773       3.789E-05      1.08    <-- DIS
      42       4.09800619       4.09786620       3.416E-05      1.11    <-- DIS
      43       4.09792792       4.09780169       3.080E-05      1.13    <-- DIS
      44       4.09785735       4.09774352       2.778E-05      1.16    <-- DIS
      45       4.09779371       4.09769106       2.505E-05      1.19    <-- DIS
      46       4.09773632       4.09764375       2.259E-05      1.21    <-- DIS
      47       4.09768456       4.09760108       2.037E-05      1.24    <-- DIS
      48       4.09763789       4.09756260       1.837E-05      1.26    <-- DIS
      49       4.09759579       4.09752789       1.657E-05      1.29    <-- DIS
      50       4.09755783       4.09749658       1.495E-05      1.32    <-- DIS
      51       4.09752358       4.09746834       1.348E-05      1.34    <-- DIS
      52       4.09749269       4.09744287       1.216E-05      1.37    <-- DIS
      53       4.09746483       4.09741989       1.097E-05      1.40    <-- DIS
      54       4.09743970       4.09739916       9.895E-06      1.42    <-- DIS
      55       4.09741703       4.09738046       8.926E-06      1.45    <-- DIS
      56       4.09739658       4.09736359       8.052E-06      1.47    <-- DIS
      57       4.09737813       4.09734837       7.264E-06      1.50    <-- DIS
      58       4.09736149       4.09733464       6.553E-06      1.52    <-- DIS
      59       4.09734648       4.09732226       5.912E-06      1.55    <-- DIS
      60       4.09733293       4.09731108       5.334E-06      1.58    <-- DIS
      61       4.09732072       4.09730100       4.812E-06      1.60    <-- DIS
      62       4.09730969       4.09729190       4.341E-06      1.63    <-- DIS
      63       4.09729974       4.09728370       3.917E-06      1.66    <-- DIS
      64       4.09729077       4.09727629       3.534E-06      1.68    <-- DIS
      65       4.09728267       4.09726961       3.189E-06      1.71    <-- DIS
      66       4.09727537       4.09726358       2.877E-06      1.73    <-- DIS
      67       4.09726878       4.09725814       2.596E-06      1.76    <-- DIS
      68       4.09726283       4.09725323       2.342E-06      1.79    <-- DIS
      69       4.09725747       4.09724881       2.113E-06      1.81    <-- DIS
      70       4.09725262       4.09724481       1.907E-06      1.84    <-- DIS
      71       4.09724825       4.09724121       1.721E-06      1.86    <-- DIS
      72       4.09724431       4.09723795       1.553E-06      1.89    <-- DIS
      73       4.09724076       4.09723502       1.401E-06      1.92    <-- DIS
      74       4.09723755       4.09723237       1.264E-06      1.95    <-- DIS
      75       4.09723465       4.09722998       1.141E-06      1.98    <-- DIS
      76       4.09723204       4.09722782       1.029E-06      2.00    <-- DIS
      77       4.09722968       4.09722587       9.288E-07      2.03    <-- DIS
      78       4.09722755       4.09722412       8.381E-07      2.05    <-- DIS
      79       4.09722563       4.09722253       7.563E-07      2.08    <-- DIS
      80       4.09722390       4.09722110       6.825E-07      2.11    <-- DIS
      81       4.09722233       4.09721981       6.158E-07      2.13    <-- DIS
      82       4.09722092       4.09721865       5.557E-07      2.16    <-- DIS
      83       4.09721965       4.09721759       5.015E-07      2.18    <-- DIS
      84       4.09721850       4.09721665       4.525E-07      2.21    <-- DIS
      85       4.09721746       4.09721579       4.084E-07      2.24    <-- DIS
      86       4.09721653       4.09721502       3.685E-07      2.26    <-- DIS
      87       4.09721568       4.09721432       3.326E-07      2.29    <-- DIS
      88       4.09721492       4.09721369       3.001E-07      2.31    <-- DIS
      89       4.09721423       4.09721312       2.708E-07      2.34    <-- DIS
      90       4.09721361       4.09721261       2.444E-07      2.37    <-- DIS
      91       4.09721305       4.09721215       2.206E-07      2.39    <-- DIS
      92       4.09721255       4.09721173       1.990E-07      2.42    <-- DIS
      93       4.09721209       4.09721136       1.796E-07      2.44    <-- DIS
      94       4.09721168       4.09721102       1.621E-07      2.47    <-- DIS
      95       4.09721131       4.09721071       1.463E-07      2.50    <-- DIS
      96       4.09721097       4.09721043       1.320E-07      2.52    <-- DIS
      97       4.09721067       4.09721018       1.191E-07      2.55    <-- DIS
      98       4.09721040       4.09720996       1.075E-07      2.57    <-- DIS
      99       4.09721015       4.09720975       9.701E-08      2.60    <-- DIS
     100       4.09720993       4.09720957       8.754E-08      2.63    <-- DIS
     101       4.09720973       4.09720940       7.900E-08      2.66    <-- DIS
     102       4.09720955       4.09720925       7.129E-08      2.68    <-- DIS
     103       4.09720938       4.09720912       6.433E-08      2.71    <-- DIS
     104       4.09720924       4.09720900       5.806E-08      2.73    <-- DIS
     105       4.09720910       4.09720889       5.239E-08      2.76    <-- DIS
     106       4.09720898       4.09720879       4.728E-08      2.78    <-- DIS
     107       4.09720887       4.09720870       4.266E-08      2.81    <-- DIS
     108       4.09720878       4.09720862       3.850E-08      2.84    <-- DIS
     109       4.09720869       4.09720855       3.474E-08      2.86    <-- DIS
     110       4.09720861       4.09720848       3.135E-08      2.89    <-- DIS
     111       4.09720854       4.09720842       2.829E-08      2.91    <-- DIS
     112       4.09720847       4.09720837       2.553E-08      2.94    <-- DIS
     113       4.09720841       4.09720832       2.303E-08      2.96    <-- DIS
     114       4.09720836       4.09720828       2.078E-08      2.99    <-- DIS
     115       4.09720831       4.09720824       1.875E-08      3.02    <-- DIS
     116       4.09720827       4.09720820       1.692E-08      3.04    <-- DIS
     117       4.09720823       4.09720817       1.527E-08      3.07    <-- DIS
     118       4.09720820       4.09720814       1.378E-08      3.09    <-- DIS
     119       4.09720816       4.09720811       1.243E-08      3.12    <-- DIS
     120       4.09720814       4.09720809       1.121E-08      3.15    <-- DIS
     121       4.09720811       4.09720807       1.012E-08      3.17    <-- DIS
     122       4.09720809       4.09720805       9.128E-09      3.20    <-- DIS
     123       4.09720807       4.09720803       8.233E-09      3.22    <-- DIS
     124       4.09720805       4.09720802       7.427E-09      3.25    <-- DIS
     125       4.09720803       4.09720800       6.698E-09      3.27    <-- DIS
     126       4.09720801       4.09720799       6.041E-09      3.30    <-- DIS
     127       4.09720800       4.09720798       5.449E-09      3.32    <-- DIS
     128       4.09720799       4.09720797       4.914E-09      3.35    <-- DIS
     129       4.09720798       4.09720796       4.431E-09      3.38    <-- DIS
     130       4.09720797       4.09720795       3.994E-09      3.41    <-- DIS
     131       4.09720796       4.09720794       3.601E-09      3.43    <-- DIS
     132       4.09720795       4.09720793       3.247E-09      3.46    <-- DIS
     133       4.09720794       4.09720793       2.927E-09      3.48    <-- DIS
     134       4.09720793       4.09720792       2.639E-09      3.51    <-- DIS
     135       4.09720793       4.09720792       2.378E-09      3.53    <-- DIS
     136       4.09720792       4.09720791       2.143E-09      3.56    <-- DIS
     137       4.09720792       4.09720791       1.931E-09      3.58    <-- DIS
     138       4.09720791       4.09720791       1.739E-09      3.61    <-- DIS
     139       4.09720791       4.09720790       1.566E-09      3.63    <-- DIS
     140       4.09720790       4.09720790       1.410E-09      3.66    <-- DIS
     141       4.09720790       4.09720790       1.269E-09      3.68    <-- DIS
     142       4.09720790       4.09720789       1.142E-09      3.71    <-- DIS
     143       4.09720790       4.09720789       1.027E-09      3.74    <-- DIS
     144       4.09720789       4.09720789       9.238E-10      3.76    <-- DIS
     145       4.09720789       4.09720789       8.302E-10      3.80    <-- DIS
     146       4.09720789       4.09720789       7.459E-10      3.83    <-- DIS
     147       4.09720789       4.09720788       6.697E-10      3.85    <-- DIS
     148       4.09720789       4.09720788       6.007E-10      3.88    <-- DIS
     149       4.09720788       4.09720788       5.387E-10      3.90    <-- DIS
     150       4.09720788       4.09720788       4.827E-10      3.93    <-- DIS
     151       4.09720788       4.09720788       4.322E-10      3.95    <-- DIS
     152       4.09720788       4.09720788       3.866E-10      3.98    <-- DIS
     153       4.09720788       4.09720788       3.455E-10      4.01    <-- DIS
     154       4.09720788       4.09720788       3.084E-10      4.03    <-- DIS
     155       4.09720788       4.09720788       2.749E-10      4.06    <-- DIS
     156       4.09720788       4.09720788       2.446E-10      4.08    <-- DIS
     157       4.09720788       4.09720788       2.173E-10      4.11    <-- DIS
     158       4.09720788       4.09720788       1.926E-10      4.14    <-- DIS
     159       4.09720788       4.09720788       1.704E-10      4.16    <-- DIS
     160       4.09720788       4.09720787       1.503E-10      4.19    <-- DIS
     161       4.09720787       4.09720787       1.322E-10      4.21    <-- DIS
     162       4.09720787       4.09720787       1.158E-10      4.24    <-- DIS
     163       4.09720787       4.09720787       1.011E-10      4.27    <-- DIS
     164       4.09720787       4.09720787       8.773E-11      4.29    <-- DIS
     165       4.09720787       4.09720787       7.569E-11      4.32    <-- DIS
     166       4.09720787       4.09720787       6.483E-11      4.34    <-- DIS

             <<<      Delta < 1.000E-10  over  3 iterations     >>>
             <<< Disentanglement convergence criteria satisfied >>>

        Final Omega_I     4.09720787 (Ang^2)

 +----------------------------------------------------------------------------+

 Time to disentangle bands      4.414 (sec)

 Writing checkpoint file Cu.chk... done


 *------------------------------- WANNIERISE ---------------------------------*
 +--------------------------------------------------------------------+<-- CONV
 | Iter  Delta Spread     RMS Gradient      Spread (Ang^2)      Time  |<-- CONV
 +--------------------------------------------------------------------+<-- CONV

 ------------------------------------------------------------------------------
 Initial State
  WF centre and spread    1  ( -0.902512,  0.902512,  0.902512 )     2.20783641
  WF centre and spread    2  (  0.000000,  0.000000,  0.000000 )     0.47487411
  WF centre and spread    3  (  0.000000, -0.000000,  0.000000 )     0.48183203
  WF centre and spread    4  (  0.000000, -0.000000, -0.000000 )     0.48183203
  WF centre and spread    5  ( -0.000000,  0.000000, -0.000000 )     0.47487413
  WF centre and spread    6  ( -0.000000,  0.000000, -0.000000 )     0.48183200
  Sum of centres and spreads ( -0.902512,  0.902512,  0.902512 )     4.60308070

      0     0.460E+01     0.0000000000        4.6030806954       4.80  <-- CONV
        O_D=      0.0808485 O_OD=      0.4250243 O_TOT=      4.6030807 <-- SPRD
 ------------------------------------------------------------------------------
 Cycle:      1
  WF centre and spread    1  ( -0.902512,  0.902512,  0.902512 )     2.16183308
  WF centre and spread    2  (  0.000000,  0.000000,  0.000000 )     0.47344263
  WF centre and spread    3  (  0.000000, -0.000000,  0.000000 )     0.48348790
  WF centre and spread    4  (  0.000000, -0.000000, -0.000000 )     0.48348790
  WF centre and spread    5  ( -0.000000,  0.000000, -0.000000 )     0.47344265
  WF centre and spread    6  ( -0.000000,  0.000000, -0.000000 )     0.48348787
  Sum of centres and spreads ( -0.902512,  0.902512,  0.902512 )     4.55918203

      1    -0.439E-01     0.2952509384        4.5591820315       4.85  <-- CONV
        O_D=      0.0749359 O_OD=      0.3870382 O_TOT=      4.5591820 <-- SPRD
 Delta: O_D= -0.5912543E-02 O_OD= -0.3798612E-01 O_TOT= -0.4389866E-01 <-- DLTA
 ------------------------------------------------------------------------------
 Cycle:      2
  WF centre and spread    1  ( -0.902512,  0.902512,  0.902512 )     2.11401752
  WF centre and spread    2  (  0.000000,  0.000000,  0.000000 )     0.47359046
  WF centre and spread    3  (  0.000000, -0.000000,  0.000000 )     0.48726574
  WF centre and spread    4  (  0.000000, -0.000000, -0.000000 )     0.48726574
  WF centre and spread    5  ( -0.000000,  0.000000, -0.000000 )     0.47359047
  WF centre and spread    6  ( -0.000000,  0.000000, -0.000000 )     0.48726572
  Sum of centres and spreads ( -0.902512,  0.902512,  0.902512 )     4.52299566

      2    -0.362E-01     0.3344636945        4.5229956540       4.89  <-- CONV
        O_D=      0.0702186 O_OD=      0.3555691 O_TOT=      4.5229957 <-- SPRD
 Delta: O_D= -0.4717314E-02 O_OD= -0.3146906E-01 O_TOT= -0.3618638E-01 <-- DLTA
 ------------------------------------------------------------------------------
 Cycle:      3
  WF centre and spread    1  ( -0.902512,  0.902512,  0.902512 )     2.08711086
  WF centre and spread    2  (  0.000000,  0.000000,  0.000000 )     0.47402493
  WF centre and spread    3  (  0.000000, -0.000000,  0.000000 )     0.49033917
  WF centre and spread    4  (  0.000000, -0.000000, -0.000000 )     0.49033917
  WF centre and spread    5  ( -0.000000,  0.000000, -0.000000 )     0.47402493
  WF centre and spread    6  ( -0.000000,  0.000000, -0.000000 )     0.49033914
  Sum of centres and spreads ( -0.902512,  0.902512,  0.902512 )     4.50617821

      3    -0.168E-01     0.2510834267        4.5061782052       4.92  <-- CONV
        O_D=      0.0661308 O_OD=      0.3428396 O_TOT=      4.5061782 <-- SPRD
 Delta: O_D= -0.4087868E-02 O_OD= -0.1272958E-01 O_TOT= -0.1681745E-01 <-- DLTA
 ------------------------------------------------------------------------------
 Cycle:      4
  WF centre and spread    1  ( -0.902512,  0.902512,  0.902512 )     2.06300471
  WF centre and spread    2  (  0.000000,  0.000000,  0.000000 )     0.47450425
  WF centre and spread    3  (  0.000000, -0.000000,  0.000000 )     0.49411326
  WF centre and spread    4  (  0.000000, -0.000000, -0.000000 )     0.49411327
  WF centre and spread    5  ( -0.000000,  0.000000, -0.000000 )     0.47450425
  WF centre and spread    6  ( -0.000000,  0.000000, -0.000000 )     0.49411324
  Sum of centres and spreads ( -0.902512,  0.902512,  0.902512 )     4.49435298

      4    -0.118E-01     0.2121792596        4.4943529826       4.95  <-- CONV
        O_D=      0.0630366 O_OD=      0.3341085 O_TOT=      4.4943530 <-- SPRD
 Delta: O_D= -0.3094201E-02 O_OD= -0.8731022E-02 O_TOT= -0.1182522E-01 <-- DLTA
 ------------------------------------------------------------------------------
 Cycle:      5
  WF centre and spread    1  ( -0.902512,  0.902512,  0.902512 )     2.03634095
  WF centre and spread    2  (  0.000000,  0.000000,  0.000000 )     0.47482807
  WF centre and spread    3  (  0.000000, -0.000000,  0.000000 )     0.49932378
  WF centre and spread    4  (  0.000000, -0.000000, -0.000000 )     0.49932378
  WF centre and spread    5  ( -0.000000,  0.000000, -0.000000 )     0.47482808
  WF centre and spread    6  ( -0.000000,  0.000000, -0.000000 )     0.49932376
  Sum of centres and spreads ( -0.902512,  0.902512,  0.902512 )     4.48396843

      5    -0.104E-01     0.1847265362        4.4839684260       4.98  <-- CONV
        O_D=      0.0600675 O_OD=      0.3266930 O_TOT=      4.4839684 <-- SPRD
 Delta: O_D= -0.2969051E-02 O_OD= -0.7415506E-02 O_TOT= -0.1038456E-01 <-- DLTA
 ------------------------------------------------------------------------------
 Cycle:      6
  WF centre and spread    1  ( -0.902512,  0.902512,  0.902512 )     2.01702254
  WF centre and spread    2  (  0.000000,  0.000000,  0.000000 )     0.47431671
  WF centre and spread    3  (  0.000000, -0.000000,  0.000000 )     0.50383816
  WF centre and spread    4  (  0.000000, -0.000000, -0.000000 )     0.50383816
  WF centre and spread    5  ( -0.000000,  0.000000, -0.000000 )     0.47431672
  WF centre and spread    6  ( -0.000000,  0.000000, -0.000000 )     0.50383813
  Sum of centres and spreads ( -0.902512,  0.902512,  0.902512 )     4.47717041

      6    -0.680E-02     0.1482020973        4.4771704067       5.02  <-- CONV
        O_D=      0.0577722 O_OD=      0.3221903 O_TOT=      4.4771704 <-- SPRD
 Delta: O_D= -0.2295325E-02 O_OD= -0.4502694E-02 O_TOT= -0.6798019E-02 <-- DLTA
 ------------------------------------------------------------------------------
 Cycle:      7
  WF centre and spread    1  ( -0.902512,  0.902512,  0.902512 )     2.01639802
  WF centre and spread    2  (  0.000000,  0.000000,  0.000000 )     0.47383359
  WF centre and spread    3  (  0.000000, -0.000000,  0.000000 )     0.50336070
  WF centre and spread    4  (  0.000000, -0.000000, -0.000000 )     0.50336070
  WF centre and spread    5  ( -0.000000,  0.000000, -0.000000 )     0.47383360
  WF centre and spread    6  ( -0.000000,  0.000000, -0.000000 )     0.50336067
  Sum of centres and spreads ( -0.902512,  0.902512,  0.902512 )     4.47414729

      7    -0.302E-02     0.1318944359        4.4741472856       5.05  <-- CONV
        O_D=      0.0570849 O_OD=      0.3198545 O_TOT=      4.4741473 <-- SPRD
 Delta: O_D= -0.6873099E-03 O_OD= -0.2335811E-02 O_TOT= -0.3023121E-02 <-- DLTA
 ------------------------------------------------------------------------------
 Cycle:      8
  WF centre and spread    1  ( -0.902512,  0.902512,  0.902512 )     2.01516191
  WF centre and spread    2  (  0.000000,  0.000000,  0.000000 )     0.47321768
  WF centre and spread    3  (  0.000000, -0.000000,  0.000000 )     0.50337908
  WF centre and spread    4  (  0.000000, -0.000000, -0.000000 )     0.50337908
  WF centre and spread    5  ( -0.000000,  0.000000, -0.000000 )     0.47321769
  WF centre and spread    6  ( -0.000000,  0.000000, -0.000000 )     0.50337905
  Sum of centres and spreads ( -0.902512,  0.902512,  0.902512 )     4.47173449

      8    -0.241E-02     0.0924155558        4.4717344842       5.08  <-- CONV
        O_D=      0.0564104 O_OD=      0.3181162 O_TOT=      4.4717345 <-- SPRD
 Delta: O_D= -0.6744731E-03 O_OD= -0.1738328E-02 O_TOT= -0.2412801E-02 <-- DLTA
 ------------------------------------------------------------------------------
 Cycle:      9
  WF centre and spread    1  ( -0.902512,  0.902512,  0.902512 )     2.01210236
  WF centre and spread    2  (  0.000000,  0.000000,  0.000000 )     0.47275600
  WF centre and spread    3  (  0.000000, -0.000000,  0.000000 )     0.50407781
  WF centre and spread    4  (  0.000000, -0.000000, -0.000000 )     0.50407782
  WF centre and spread    5  ( -0.000000,  0.000000, -0.000000 )     0.47275601
  WF centre and spread    6  ( -0.000000,  0.000000, -0.000000 )     0.50407779
  Sum of centres and spreads ( -0.902512,  0.902512,  0.902512 )     4.46984778

      9    -0.189E-02     0.0800025025        4.4698477746       5.11  <-- CONV
        O_D=      0.0558917 O_OD=      0.3167482 O_TOT=      4.4698478 <-- SPRD
 Delta: O_D= -0.5187492E-03 O_OD= -0.1367960E-02 O_TOT= -0.1886710E-02 <-- DLTA
 ------------------------------------------------------------------------------
 Cycle:     10
  WF centre and spread    1  ( -0.902512,  0.902512,  0.902512 )     2.00818081
  WF centre and spread    2  (  0.000000,  0.000000,  0.000000 )     0.47249728
  WF centre and spread    3  (  0.000000, -0.000000,  0.000000 )     0.50516730
  WF centre and spread    4  (  0.000000, -0.000000, -0.000000 )     0.50516730
  WF centre and spread    5  ( -0.000000,  0.000000, -0.000000 )     0.47249729
  WF centre and spread    6  ( -0.000000,  0.000000, -0.000000 )     0.50516727
  Sum of centres and spreads ( -0.902512,  0.902512,  0.902512 )     4.46867725

     10    -0.117E-02     0.0645204049        4.4686772433       5.14  <-- CONV
        O_D=      0.0552461 O_OD=      0.3162232 O_TOT=      4.4686772 <-- SPRD
 Delta: O_D= -0.6455100E-03 O_OD= -0.5250213E-03 O_TOT= -0.1170531E-02 <-- DLTA
 ------------------------------------------------------------------------------
 Cycle:     11
  WF centre and spread    1  ( -0.902512,  0.902512,  0.902512 )     2.00422731
  WF centre and spread    2  (  0.000000,  0.000000,  0.000000 )     0.47229422
  WF centre and spread    3  (  0.000000, -0.000000,  0.000000 )     0.50633058
  WF centre and spread    4  (  0.000000, -0.000000, -0.000000 )     0.50633058
  WF centre and spread    5  ( -0.000000,  0.000000, -0.000000 )     0.47229423
  WF centre and spread    6  ( -0.000000,  0.000000, -0.000000 )     0.50633055
  Sum of centres and spreads ( -0.902512,  0.902512,  0.902512 )     4.46780746

     11    -0.870E-03     0.0535977363        4.4678074563       5.18  <-- CONV
        O_D=      0.0546179 O_OD=      0.3159817 O_TOT=      4.4678075 <-- SPRD
 Delta: O_D= -0.6282494E-03 O_OD= -0.2415376E-03 O_TOT= -0.8697870E-03 <-- DLTA
 ------------------------------------------------------------------------------
 Cycle:     12
  WF centre and spread    1  ( -0.902512,  0.902512,  0.902512 )     2.00113071
  WF centre and spread    2  (  0.000000,  0.000000,  0.000000 )     0.47220831
  WF centre and spread    3  (  0.000000, -0.000000,  0.000000 )     0.50726548
  WF centre and spread    4  (  0.000000, -0.000000, -0.000000 )     0.50726548
  WF centre and spread    5  ( -0.000000,  0.000000, -0.000000 )     0.47220832
  WF centre and spread    6  ( -0.000000,  0.000000, -0.000000 )     0.50726545
  Sum of centres and spreads ( -0.902512,  0.902512,  0.902512 )     4.46734375

     12    -0.464E-03     0.0443167337        4.4673437452       5.21  <-- CONV
        O_D=      0.0543120 O_OD=      0.3158238 O_TOT=      4.4673437 <-- SPRD
 Delta: O_D= -0.3058764E-03 O_OD= -0.1578347E-03 O_TOT= -0.4637112E-03 <-- DLTA
 ------------------------------------------------------------------------------
 Cycle:     13
  WF centre and spread    1  ( -0.902512,  0.902512,  0.902512 )     2.00001237
  WF centre and spread    2  (  0.000000,  0.000000,  0.000000 )     0.47225052
  WF centre and spread    3  (  0.000000, -0.000000,  0.000000 )     0.50754965
  WF centre and spread    4  (  0.000000, -0.000000, -0.000000 )     0.50754965
  WF centre and spread    5  ( -0.000000,  0.000000, -0.000000 )     0.47225053
  WF centre and spread    6  ( -0.000000,  0.000000, -0.000000 )     0.50754962
  Sum of centres and spreads ( -0.902512,  0.902512,  0.902512 )     4.46716235

     13    -0.181E-03     0.0311983775        4.4671623411       5.24  <-- CONV
        O_D=      0.0542244 O_OD=      0.3157300 O_TOT=      4.4671623 <-- SPRD
 Delta: O_D= -0.8759176E-04 O_OD= -0.9381226E-04 O_TOT= -0.1814040E-03 <-- DLTA
 ------------------------------------------------------------------------------
 Cycle:     14
  WF centre and spread    1  ( -0.902512,  0.902512,  0.902512 )     1.99628046
  WF centre and spread    2  (  0.000000,  0.000000,  0.000000 )     0.47241897
  WF centre and spread    3  (  0.000000, -0.000000,  0.000000 )     0.50857812
  WF centre and spread    4  (  0.000000, -0.000000, -0.000000 )     0.50857812
  WF centre and spread    5  ( -0.000000,  0.000000, -0.000000 )     0.47241898
  WF centre and spread    6  ( -0.000000,  0.000000, -0.000000 )     0.50857809
  Sum of centres and spreads ( -0.902512,  0.902512,  0.902512 )     4.46685275

     14    -0.310E-03     0.0271033888        4.4668527382       5.27  <-- CONV
        O_D=      0.0539561 O_OD=      0.3156887 O_TOT=      4.4668527 <-- SPRD
 Delta: O_D= -0.2683106E-03 O_OD= -0.4129235E-04 O_TOT= -0.3096030E-03 <-- DLTA
 ------------------------------------------------------------------------------
 Cycle:     15
  WF centre and spread    1  ( -0.902512,  0.902512,  0.902512 )     1.99379546
  WF centre and spread    2  (  0.000000,  0.000000,  0.000000 )     0.47251572
  WF centre and spread    3  (  0.000000, -0.000000,  0.000000 )     0.50928453
  WF centre and spread    4  (  0.000000, -0.000000, -0.000000 )     0.50928453
  WF centre and spread    5  ( -0.000000,  0.000000, -0.000000 )     0.47251574
  WF centre and spread    6  ( -0.000000,  0.000000, -0.000000 )     0.50928450
  Sum of centres and spreads ( -0.902512,  0.902512,  0.902512 )     4.46668049

     15    -0.172E-03     0.0277087606        4.4666804841       5.30  <-- CONV
        O_D=      0.0537459 O_OD=      0.3157267 O_TOT=      4.4666805 <-- SPRD
 Delta: O_D= -0.2101922E-03 O_OD=  0.3793815E-04 O_TOT= -0.1722541E-03 <-- DLTA
 ------------------------------------------------------------------------------
 Cycle:     16
  WF centre and spread    1  ( -0.902512,  0.902512,  0.902512 )     1.99128157
  WF centre and spread    2  (  0.000000,  0.000000,  0.000000 )     0.47258430
  WF centre and spread    3  (  0.000000, -0.000000,  0.000000 )     0.51002987
  WF centre and spread    4  (  0.000000, -0.000000, -0.000000 )     0.51002987
  WF centre and spread    5  ( -0.000000,  0.000000, -0.000000 )     0.47258431
  WF centre and spread    6  ( -0.000000,  0.000000, -0.000000 )     0.51002984
  Sum of centres and spreads ( -0.902512,  0.902512,  0.902512 )     4.46653975

     16    -0.141E-03     0.0226769759        4.4665397443       5.34  <-- CONV
        O_D=      0.0534878 O_OD=      0.3158441 O_TOT=      4.4665397 <-- SPRD
 Delta: O_D= -0.2581516E-03 O_OD=  0.1174118E-03 O_TOT= -0.1407398E-03 <-- DLTA
 ------------------------------------------------------------------------------
 Cycle:     17
  WF centre and spread    1  ( -0.902512,  0.902512,  0.902512 )     1.98947262
  WF centre and spread    2  (  0.000000,  0.000000,  0.000000 )     0.47261621
  WF centre and spread    3  (  0.000000, -0.000000,  0.000000 )     0.51058526
  WF centre and spread    4  (  0.000000, -0.000000, -0.000000 )     0.51058526
  WF centre and spread    5  ( -0.000000,  0.000000, -0.000000 )     0.47261622
  WF centre and spread    6  ( -0.000000,  0.000000, -0.000000 )     0.51058523
  Sum of centres and spreads ( -0.902512,  0.902512,  0.902512 )     4.46646080

     17    -0.790E-04     0.0193556197        4.4664607939       5.37  <-- CONV
        O_D=      0.0532921 O_OD=      0.3159608 O_TOT=      4.4664608 <-- SPRD
 Delta: O_D= -0.1956827E-03 O_OD=  0.1167323E-03 O_TOT= -0.7895040E-04 <-- DLTA
 ------------------------------------------------------------------------------
 Cycle:     18
  WF centre and spread    1  ( -0.902512,  0.902512,  0.902512 )     1.98781767
  WF centre and spread    2  (  0.000000,  0.000000,  0.000000 )     0.47262085
  WF centre and spread    3  (  0.000000, -0.000000,  0.000000 )     0.51111487
  WF centre and spread    4  (  0.000000, -0.000000, -0.000000 )     0.51111487
  WF centre and spread    5  ( -0.000000,  0.000000, -0.000000 )     0.47262086
  WF centre and spread    6  ( -0.000000,  0.000000, -0.000000 )     0.51111484
  Sum of centres and spreads ( -0.902512,  0.902512,  0.902512 )     4.46640397

     18    -0.568E-04     0.0140179008        4.4664039647       5.40  <-- CONV
        O_D=      0.0530919 O_OD=      0.3161041 O_TOT=      4.4664040 <-- SPRD
 Delta: O_D= -0.2001497E-03 O_OD=  0.1433206E-03 O_TOT= -0.5682916E-04 <-- DLTA
 ------------------------------------------------------------------------------
 Cycle:     19
  WF centre and spread    1  ( -0.902512,  0.902512,  0.902512 )     1.98780111
  WF centre and spread    2  (  0.000000,  0.000000,  0.000000 )     0.47259664
  WF centre and spread    3  (  0.000000, -0.000000,  0.000000 )     0.51112687
  WF centre and spread    4  (  0.000000, -0.000000, -0.000000 )     0.51112687
  WF centre and spread    5  ( -0.000000,  0.000000, -0.000000 )     0.47259665
  WF centre and spread    6  ( -0.000000,  0.000000, -0.000000 )     0.51112684
  Sum of centres and spreads ( -0.902512,  0.902512,  0.902512 )     4.46637497

     19    -0.290E-04     0.0126061808        4.4663749635       5.43  <-- CONV
        O_D=      0.0530617 O_OD=      0.3161054 O_TOT=      4.4663750 <-- SPRD
 Delta: O_D= -0.3024026E-04 O_OD=  0.1239023E-05 O_TOT= -0.2900123E-04 <-- DLTA
 ------------------------------------------------------------------------------
 Cycle:     20
  WF centre and spread    1  ( -0.902512,  0.902512,  0.902512 )     1.98768630
  WF centre and spread    2  (  0.000000,  0.000000,  0.000000 )     0.47254912
  WF centre and spread    3  (  0.000000, -0.000000,  0.000000 )     0.51118715
  WF centre and spread    4  (  0.000000, -0.000000, -0.000000 )     0.51118715
  WF centre and spread    5  ( -0.000000,  0.000000, -0.000000 )     0.47254913
  WF centre and spread    6  ( -0.000000,  0.000000, -0.000000 )     0.51118712
  Sum of centres and spreads ( -0.902512,  0.902512,  0.902512 )     4.46634598

     20    -0.290E-04     0.0101771287        4.4663459704       5.46  <-- CONV
        O_D=      0.0529971 O_OD=      0.3161410 O_TOT=      4.4663460 <-- SPRD
 Delta: O_D= -0.6459990E-04 O_OD=  0.3560683E-04 O_TOT= -0.2899307E-04 <-- DLTA
 ------------------------------------------------------------------------------
 Cycle:     21
  WF centre and spread    1  ( -0.902512,  0.902512,  0.902512 )     1.98734470
  WF centre and spread    2  (  0.000000,  0.000000,  0.000000 )     0.47250143
  WF centre and spread    3  (  0.000000, -0.000000,  0.000000 )     0.51132457
  WF centre and spread    4  (  0.000000, -0.000000, -0.000000 )     0.51132457
  WF centre and spread    5  ( -0.000000,  0.000000, -0.000000 )     0.47250144
  WF centre and spread    6  ( -0.000000,  0.000000, -0.000000 )     0.51132454
  Sum of centres and spreads ( -0.902512,  0.902512,  0.902512 )     4.46632125

     21    -0.247E-04     0.0096092646        4.4663212424       5.50  <-- CONV
        O_D=      0.0529203 O_OD=      0.3161931 O_TOT=      4.4663212 <-- SPRD
 Delta: O_D= -0.7685180E-04 O_OD=  0.5212384E-04 O_TOT= -0.2472797E-04 <-- DLTA
 ------------------------------------------------------------------------------
 Cycle:     22
  WF centre and spread    1  ( -0.902512,  0.902512,  0.902512 )     1.98691921
  WF centre and spread    2  (  0.000000,  0.000000,  0.000000 )     0.47246984
  WF centre and spread    3  (  0.000000, -0.000000,  0.000000 )     0.51148251
  WF centre and spread    4  (  0.000000, -0.000000, -0.000000 )     0.51148251
  WF centre and spread    5  ( -0.000000,  0.000000, -0.000000 )     0.47246985
  WF centre and spread    6  ( -0.000000,  0.000000, -0.000000 )     0.51148248
  Sum of centres and spreads ( -0.902512,  0.902512,  0.902512 )     4.46630640

     22    -0.149E-04     0.0074894334        4.4663063876       5.53  <-- CONV
        O_D=      0.0528487 O_OD=      0.3162498 O_TOT=      4.4663064 <-- SPRD
 Delta: O_D= -0.7154564E-04 O_OD=  0.5669083E-04 O_TOT= -0.1485481E-04 <-- DLTA
 ------------------------------------------------------------------------------
 Cycle:     23
  WF centre and spread    1  ( -0.902512,  0.902512,  0.902512 )     1.98653522
  WF centre and spread    2  (  0.000000,  0.000000,  0.000000 )     0.47244890
  WF centre and spread    3  (  0.000000, -0.000000,  0.000000 )     0.51162121
  WF centre and spread    4  (  0.000000, -0.000000, -0.000000 )     0.51162121
  WF centre and spread    5  ( -0.000000,  0.000000, -0.000000 )     0.47244892
  WF centre and spread    6  ( -0.000000,  0.000000, -0.000000 )     0.51162118
  Sum of centres and spreads ( -0.902512,  0.902512,  0.902512 )     4.46629662

     23    -0.978E-05     0.0065818713        4.4662966095       5.56  <-- CONV
        O_D=      0.0527864 O_OD=      0.3163023 O_TOT=      4.4662966 <-- SPRD
 Delta: O_D= -0.6230915E-04 O_OD=  0.5253101E-04 O_TOT= -0.9778137E-05 <-- DLTA
 ------------------------------------------------------------------------------
 Cycle:     24
  WF centre and spread    1  ( -0.902512,  0.902512,  0.902512 )     1.98624135
  WF centre and spread    2  (  0.000000,  0.000000,  0.000000 )     0.47244346
  WF centre and spread    3  (  0.000000, -0.000000,  0.000000 )     0.51172121
  WF centre and spread    4  (  0.000000, -0.000000, -0.000000 )     0.51172121
  WF centre and spread    5  ( -0.000000,  0.000000, -0.000000 )     0.47244347
  WF centre and spread    6  ( -0.000000,  0.000000, -0.000000 )     0.51172118
  Sum of centres and spreads ( -0.902512,  0.902512,  0.902512 )     4.46629190

     24    -0.473E-05     0.0045661176        4.4662918818       5.59  <-- CONV
        O_D=      0.0527504 O_OD=      0.3163336 O_TOT=      4.4662919 <-- SPRD
 Delta: O_D= -0.3598421E-04 O_OD=  0.3125658E-04 O_TOT= -0.4727637E-05 <-- DLTA
 ------------------------------------------------------------------------------
 Cycle:     25
  WF centre and spread    1  ( -0.902512,  0.902512,  0.902512 )     1.98612845
  WF centre and spread    2  (  0.000000,  0.000000,  0.000000 )     0.47244935
  WF centre and spread    3  (  0.000000, -0.000000,  0.000000 )     0.51175401
  WF centre and spread    4  (  0.000000, -0.000000, -0.000000 )     0.51175401
  WF centre and spread    5  ( -0.000000,  0.000000, -0.000000 )     0.47244936
  WF centre and spread    6  ( -0.000000,  0.000000, -0.000000 )     0.51175398
  Sum of centres and spreads ( -0.902512,  0.902512,  0.902512 )     4.46628916

     25    -0.273E-05     0.0038890633        4.4662891488       5.62  <-- CONV
        O_D=      0.0527439 O_OD=      0.3163373 O_TOT=      4.4662891 <-- SPRD
 Delta: O_D= -0.6464502E-05 O_OD=  0.3731420E-05 O_TOT= -0.2733082E-05 <-- DLTA
 ------------------------------------------------------------------------------
 Cycle:     26
  WF centre and spread    1  ( -0.902512,  0.902512,  0.902512 )     1.98573408
  WF centre and spread    2  (  0.000000,  0.000000,  0.000000 )     0.47246942
  WF centre and spread    3  (  0.000000, -0.000000,  0.000000 )     0.51187068
  WF centre and spread    4  (  0.000000, -0.000000, -0.000000 )     0.51187068
  WF centre and spread    5  ( -0.000000,  0.000000, -0.000000 )     0.47246944
  WF centre and spread    6  ( -0.000000,  0.000000, -0.000000 )     0.51187065
  Sum of centres and spreads ( -0.902512,  0.902512,  0.902512 )     4.46628494

     26    -0.422E-05     0.0032798155        4.4662849277       5.65  <-- CONV
        O_D=      0.0527173 O_OD=      0.3163598 O_TOT=      4.4662849 <-- SPRD
 Delta: O_D= -0.2666174E-04 O_OD=  0.2244064E-04 O_TOT= -0.4221104E-05 <-- DLTA
 ------------------------------------------------------------------------------
 Cycle:     27
  WF centre and spread    1  ( -0.902512,  0.902512,  0.902512 )     1.98536960
  WF centre and spread    2  (  0.000000,  0.000000,  0.000000 )     0.47248551
  WF centre and spread    3  (  0.000000, -0.000000,  0.000000 )     0.51198041
  WF centre and spread    4  (  0.000000, -0.000000, -0.000000 )     0.51198042
  WF centre and spread    5  ( -0.000000,  0.000000, -0.000000 )     0.47248553
  WF centre and spread    6  ( -0.000000,  0.000000, -0.000000 )     0.51198039
  Sum of centres and spreads ( -0.902512,  0.902512,  0.902512 )     4.46628186

     27    -0.308E-05     0.0037365480        4.4662818432       5.69  <-- CONV
        O_D=      0.0526878 O_OD=      0.3163862 O_TOT=      4.4662818 <-- SPRD
 Delta: O_D= -0.2947643E-04 O_OD=  0.2639201E-04 O_TOT= -0.3084423E-05 <-- DLTA
 ------------------------------------------------------------------------------
 Cycle:     28
  WF centre and spread    1  ( -0.902512,  0.902512,  0.902512 )     1.98503342
  WF centre and spread    2  (  0.000000,  0.000000,  0.000000 )     0.47249549
  WF centre and spread    3  (  0.000000, -0.000000,  0.000000 )     0.51208507
  WF centre and spread    4  (  0.000000, -0.000000, -0.000000 )     0.51208507
  WF centre and spread    5  ( -0.000000,  0.000000, -0.000000 )     0.47249551
  WF centre and spread    6  ( -0.000000,  0.000000, -0.000000 )     0.51208504
  Sum of centres and spreads ( -0.902512,  0.902512,  0.902512 )     4.46627961

     28    -0.224E-05     0.0027076621        4.4662795985       5.72  <-- CONV
        O_D=      0.0526578 O_OD=      0.3164140 O_TOT=      4.4662796 <-- SPRD
 Delta: O_D= -0.3004835E-04 O_OD=  0.2780360E-04 O_TOT= -0.2244748E-05 <-- DLTA
 ------------------------------------------------------------------------------
 Cycle:     29
  WF centre and spread    1  ( -0.902512,  0.902512,  0.902512 )     1.98481604
  WF centre and spread    2  (  0.000000,  0.000000,  0.000000 )     0.47249892
  WF centre and spread    3  (  0.000000, -0.000000,  0.000000 )     0.51215485
  WF centre and spread    4  (  0.000000, -0.000000, -0.000000 )     0.51215485
  WF centre and spread    5  ( -0.000000,  0.000000, -0.000000 )     0.47249893
  WF centre and spread    6  ( -0.000000,  0.000000, -0.000000 )     0.51215482
  Sum of centres and spreads ( -0.902512,  0.902512,  0.902512 )     4.46627839

     29    -0.122E-05     0.0023872891        4.4662783773       5.75  <-- CONV
        O_D=      0.0526374 O_OD=      0.3164331 O_TOT=      4.4662784 <-- SPRD
 Delta: O_D= -0.2037080E-04 O_OD=  0.1914963E-04 O_TOT= -0.1221162E-05 <-- DLTA
 ------------------------------------------------------------------------------
 Cycle:     30
  WF centre and spread    1  ( -0.902512,  0.902512,  0.902512 )     1.98468367
  WF centre and spread    2  (  0.000000,  0.000000,  0.000000 )     0.47249787
  WF centre and spread    3  (  0.000000, -0.000000,  0.000000 )     0.51219945
  WF centre and spread    4  (  0.000000, -0.000000, -0.000000 )     0.51219945
  WF centre and spread    5  ( -0.000000,  0.000000, -0.000000 )     0.47249788
  WF centre and spread    6  ( -0.000000,  0.000000, -0.000000 )     0.51219942
  Sum of centres and spreads ( -0.902512,  0.902512,  0.902512 )     4.46627775

     30    -0.642E-06     0.0016574501        4.4662777351       5.78  <-- CONV
        O_D=      0.0526208 O_OD=      0.3164491 O_TOT=      4.4662777 <-- SPRD
 Delta: O_D= -0.1659833E-04 O_OD=  0.1595607E-04 O_TOT= -0.6422539E-06 <-- DLTA
 ------------------------------------------------------------------------------
 Cycle:     31
  WF centre and spread    1  ( -0.902512,  0.902512,  0.902512 )     1.98467541
  WF centre and spread    2  (  0.000000,  0.000000,  0.000000 )     0.47249578
  WF centre and spread    3  (  0.000000, -0.000000,  0.000000 )     0.51220345
  WF centre and spread    4  (  0.000000, -0.000000, -0.000000 )     0.51220345
  WF centre and spread    5  ( -0.000000,  0.000000, -0.000000 )     0.47249579
  WF centre and spread    6  ( -0.000000,  0.000000, -0.000000 )     0.51220342
  Sum of centres and spreads ( -0.902512,  0.902512,  0.902512 )     4.46627729

     31    -0.461E-06     0.0016744947        4.4662772738       5.81  <-- CONV
        O_D=      0.0526167 O_OD=      0.3164527 O_TOT=      4.4662773 <-- SPRD
 Delta: O_D= -0.4050489E-05 O_OD=  0.3589214E-05 O_TOT= -0.4612754E-06 <-- DLTA
 ------------------------------------------------------------------------------
 Cycle:     32
  WF centre and spread    1  ( -0.902512,  0.902512,  0.902512 )     1.98464927
  WF centre and spread    2  (  0.000000,  0.000000,  0.000000 )     0.47249041
  WF centre and spread    3  (  0.000000, -0.000000,  0.000000 )     0.51221557
  WF centre and spread    4  (  0.000000, -0.000000, -0.000000 )     0.51221557
  WF centre and spread    5  ( -0.000000,  0.000000, -0.000000 )     0.47249042
  WF centre and spread    6  ( -0.000000,  0.000000, -0.000000 )     0.51221554
  Sum of centres and spreads ( -0.902512,  0.902512,  0.902512 )     4.46627679

     32    -0.502E-06     0.0012744749        4.4662767720       5.84  <-- CONV
        O_D=      0.0526068 O_OD=      0.3164621 O_TOT=      4.4662768 <-- SPRD
 Delta: O_D= -0.9930176E-05 O_OD=  0.9428401E-05 O_TOT= -0.5017747E-06 <-- DLTA
 ------------------------------------------------------------------------------
 Cycle:     33
  WF centre and spread    1  ( -0.902512,  0.902512,  0.902512 )     1.98460496
  WF centre and spread    2  (  0.000000,  0.000000,  0.000000 )     0.47248425
  WF centre and spread    3  (  0.000000, -0.000000,  0.000000 )     0.51223430
  WF centre and spread    4  (  0.000000, -0.000000, -0.000000 )     0.51223431
  WF centre and spread    5  ( -0.000000,  0.000000, -0.000000 )     0.47248426
  WF centre and spread    6  ( -0.000000,  0.000000, -0.000000 )     0.51223428
  Sum of centres and spreads ( -0.902512,  0.902512,  0.902512 )     4.46627635

     33    -0.437E-06     0.0012925839        4.4662763348       5.88  <-- CONV
        O_D=      0.0525957 O_OD=      0.3164727 O_TOT=      4.4662763 <-- SPRD
 Delta: O_D= -0.1109317E-04 O_OD=  0.1065595E-04 O_TOT= -0.4372185E-06 <-- DLTA
 ------------------------------------------------------------------------------
 Cycle:     34
  WF centre and spread    1  ( -0.902512,  0.902512,  0.902512 )     1.98455512
  WF centre and spread    2  (  0.000000,  0.000000,  0.000000 )     0.47247987
  WF centre and spread    3  (  0.000000, -0.000000,  0.000000 )     0.51225375
  WF centre and spread    4  (  0.000000, -0.000000, -0.000000 )     0.51225375
  WF centre and spread    5  ( -0.000000,  0.000000, -0.000000 )     0.47247989
  WF centre and spread    6  ( -0.000000,  0.000000, -0.000000 )     0.51225372
  Sum of centres and spreads ( -0.902512,  0.902512,  0.902512 )     4.46627610

     34    -0.253E-06     0.0009659193        4.4662760817       5.91  <-- CONV
        O_D=      0.0525864 O_OD=      0.3164818 O_TOT=      4.4662761 <-- SPRD
 Delta: O_D= -0.9303907E-05 O_OD=  0.9050764E-05 O_TOT= -0.2531432E-06 <-- DLTA
 ------------------------------------------------------------------------------
 Cycle:     35
  WF centre and spread    1  ( -0.902512,  0.902512,  0.902512 )     1.98450331
  WF centre and spread    2  (  0.000000,  0.000000,  0.000000 )     0.47247711
  WF centre and spread    3  (  0.000000, -0.000000,  0.000000 )     0.51227280
  WF centre and spread    4  (  0.000000, -0.000000, -0.000000 )     0.51227280
  WF centre and spread    5  ( -0.000000,  0.000000, -0.000000 )     0.47247713
  WF centre and spread    6  ( -0.000000,  0.000000, -0.000000 )     0.51227277
  Sum of centres and spreads ( -0.902512,  0.902512,  0.902512 )     4.46627593

     35    -0.168E-06     0.0008753310        4.4662759133       5.94  <-- CONV
        O_D=      0.0525779 O_OD=      0.3164901 O_TOT=      4.4662759 <-- SPRD
 Delta: O_D= -0.8476245E-05 O_OD=  0.8307885E-05 O_TOT= -0.1683598E-06 <-- DLTA
 ------------------------------------------------------------------------------
 Cycle:     36
  WF centre and spread    1  ( -0.902512,  0.902512,  0.902512 )     1.98446447
  WF centre and spread    2  (  0.000000,  0.000000,  0.000000 )     0.47247699
  WF centre and spread    3  (  0.000000, -0.000000,  0.000000 )     0.51228581
  WF centre and spread    4  (  0.000000, -0.000000, -0.000000 )     0.51228581
  WF centre and spread    5  ( -0.000000,  0.000000, -0.000000 )     0.47247701
  WF centre and spread    6  ( -0.000000,  0.000000, -0.000000 )     0.51228578
  Sum of centres and spreads ( -0.902512,  0.902512,  0.902512 )     4.46627587

     36    -0.627E-07     0.0005358560        4.4662758506       5.97  <-- CONV
        O_D=      0.0525736 O_OD=      0.3164944 O_TOT=      4.4662759 <-- SPRD
 Delta: O_D= -0.4386556E-05 O_OD=  0.4323889E-05 O_TOT= -0.6266694E-07 <-- DLTA
 ------------------------------------------------------------------------------
 Cycle:     37
  WF centre and spread    1  ( -0.902512,  0.902512,  0.902512 )     1.98445048
  WF centre and spread    2  (  0.000000,  0.000000,  0.000000 )     0.47247776
  WF centre and spread    3  (  0.000000, -0.000000,  0.000000 )     0.51228995
  WF centre and spread    4  (  0.000000, -0.000000, -0.000000 )     0.51228995
  WF centre and spread    5  ( -0.000000,  0.000000, -0.000000 )     0.47247778
  WF centre and spread    6  ( -0.000000,  0.000000, -0.000000 )     0.51228992
  Sum of centres and spreads ( -0.902512,  0.902512,  0.902512 )     4.46627582

     37    -0.486E-07     0.0005277891        4.4662758020       6.00  <-- CONV
        O_D=      0.0525728 O_OD=      0.3164951 O_TOT=      4.4662758 <-- SPRD
 Delta: O_D= -0.7581918E-06 O_OD=  0.7095868E-06 O_TOT= -0.4860499E-07 <-- DLTA
 ------------------------------------------------------------------------------
 Cycle:     38
  WF centre and spread    1  ( -0.902512,  0.902512,  0.902512 )     1.98439941
  WF centre and spread    2  (  0.000000,  0.000000,  0.000000 )     0.47248034
  WF centre and spread    3  (  0.000000, -0.000000,  0.000000 )     0.51230522
  WF centre and spread    4  (  0.000000, -0.000000, -0.000000 )     0.51230522
  WF centre and spread    5  ( -0.000000,  0.000000, -0.000000 )     0.47248035
  WF centre and spread    6  ( -0.000000,  0.000000, -0.000000 )     0.51230519
  Sum of centres and spreads ( -0.902512,  0.902512,  0.902512 )     4.46627575

     38    -0.751E-07     0.0004365280        4.4662757270       6.04  <-- CONV
        O_D=      0.0525695 O_OD=      0.3164984 O_TOT=      4.4662757 <-- SPRD
 Delta: O_D= -0.3291876E-05 O_OD=  0.3216809E-05 O_TOT= -0.7506683E-07 <-- DLTA
 ------------------------------------------------------------------------------
 Cycle:     39
  WF centre and spread    1  ( -0.902512,  0.902512,  0.902512 )     1.98434979
  WF centre and spread    2  (  0.000000,  0.000000,  0.000000 )     0.47248243
  WF centre and spread    3  (  0.000000, -0.000000,  0.000000 )     0.51232035
  WF centre and spread    4  (  0.000000, -0.000000, -0.000000 )     0.51232035
  WF centre and spread    5  ( -0.000000,  0.000000, -0.000000 )     0.47248245
  WF centre and spread    6  ( -0.000000,  0.000000, -0.000000 )     0.51232032
  Sum of centres and spreads ( -0.902512,  0.902512,  0.902512 )     4.46627569

     39    -0.559E-07     0.0004930270        4.4662756710       6.07  <-- CONV
        O_D=      0.0525656 O_OD=      0.3165022 O_TOT=      4.4662757 <-- SPRD
 Delta: O_D= -0.3877667E-05 O_OD=  0.3821721E-05 O_TOT= -0.5594570E-07 <-- DLTA
 ------------------------------------------------------------------------------
 Cycle:     40
  WF centre and spread    1  ( -0.902512,  0.902512,  0.902512 )     1.98430375
  WF centre and spread    2  (  0.000000,  0.000000,  0.000000 )     0.47248374
  WF centre and spread    3  (  0.000000, -0.000000,  0.000000 )     0.51233481
  WF centre and spread    4  (  0.000000, -0.000000, -0.000000 )     0.51233481
  WF centre and spread    5  ( -0.000000,  0.000000, -0.000000 )     0.47248375
  WF centre and spread    6  ( -0.000000,  0.000000, -0.000000 )     0.51233478
  Sum of centres and spreads ( -0.902512,  0.902512,  0.902512 )     4.46627565

     40    -0.411E-07     0.0003701987        4.4662756299       6.10  <-- CONV
        O_D=      0.0525616 O_OD=      0.3165062 O_TOT=      4.4662756 <-- SPRD
 Delta: O_D= -0.4037641E-05 O_OD=  0.3996544E-05 O_TOT= -0.4109650E-07 <-- DLTA
 ------------------------------------------------------------------------------
 Cycle:     41
  WF centre and spread    1  ( -0.902512,  0.902512,  0.902512 )     1.98427529
  WF centre and spread    2  (  0.000000,  0.000000,  0.000000 )     0.47248416
  WF centre and spread    3  (  0.000000, -0.000000,  0.000000 )     0.51234401
  WF centre and spread    4  (  0.000000, -0.000000, -0.000000 )     0.51234401
  WF centre and spread    5  ( -0.000000,  0.000000, -0.000000 )     0.47248418
  WF centre and spread    6  ( -0.000000,  0.000000, -0.000000 )     0.51234398
  Sum of centres and spreads ( -0.902512,  0.902512,  0.902512 )     4.46627563

     41    -0.218E-07     0.0003152019        4.4662756081       6.13  <-- CONV
        O_D=      0.0525589 O_OD=      0.3165088 O_TOT=      4.4662756 <-- SPRD
 Delta: O_D= -0.2636805E-05 O_OD=  0.2615003E-05 O_TOT= -0.2180258E-07 <-- DLTA
 ------------------------------------------------------------------------------
 Cycle:     42
  WF centre and spread    1  ( -0.902512,  0.902512,  0.902512 )     1.98425872
  WF centre and spread    2  (  0.000000,  0.000000,  0.000000 )     0.47248402
  WF centre and spread    3  (  0.000000, -0.000000,  0.000000 )     0.51234962
  WF centre and spread    4  (  0.000000, -0.000000, -0.000000 )     0.51234962
  WF centre and spread    5  ( -0.000000,  0.000000, -0.000000 )     0.47248404
  WF centre and spread    6  ( -0.000000,  0.000000, -0.000000 )     0.51234959
  Sum of centres and spreads ( -0.902512,  0.902512,  0.902512 )     4.46627562

     42    -0.113E-07     0.0002193130        4.4662755968       6.17  <-- CONV
        O_D=      0.0525569 O_OD=      0.3165109 O_TOT=      4.4662756 <-- SPRD
 Delta: O_D= -0.2088427E-05 O_OD=  0.2077135E-05 O_TOT= -0.1129216E-07 <-- DLTA
 ------------------------------------------------------------------------------
 Cycle:     43
  WF centre and spread    1  ( -0.902512,  0.902512,  0.902512 )     1.98425758
  WF centre and spread    2  (  0.000000,  0.000000,  0.000000 )     0.47248377
  WF centre and spread    3  (  0.000000, -0.000000,  0.000000 )     0.51235017
  WF centre and spread    4  (  0.000000, -0.000000, -0.000000 )     0.51235017
  WF centre and spread    5  ( -0.000000,  0.000000, -0.000000 )     0.47248378
  WF centre and spread    6  ( -0.000000,  0.000000, -0.000000 )     0.51235014
  Sum of centres and spreads ( -0.902512,  0.902512,  0.902512 )     4.46627561

     43    -0.827E-08     0.0002256044        4.4662755885       6.20  <-- CONV
        O_D=      0.0525563 O_OD=      0.3165114 O_TOT=      4.4662756 <-- SPRD
 Delta: O_D= -0.5304603E-06 O_OD=  0.5221855E-06 O_TOT= -0.8274746E-08 <-- DLTA
 ------------------------------------------------------------------------------
 Cycle:     44
  WF centre and spread    1  ( -0.902512,  0.902512,  0.902512 )     1.98425397
  WF centre and spread    2  (  0.000000,  0.000000,  0.000000 )     0.47248311
  WF centre and spread    3  (  0.000000, -0.000000,  0.000000 )     0.51235181
  WF centre and spread    4  (  0.000000, -0.000000, -0.000000 )     0.51235181
  WF centre and spread    5  ( -0.000000,  0.000000, -0.000000 )     0.47248312
  WF centre and spread    6  ( -0.000000,  0.000000, -0.000000 )     0.51235178
  Sum of centres and spreads ( -0.902512,  0.902512,  0.902512 )     4.46627560

     44    -0.918E-08     0.0001701744        4.4662755794       6.23  <-- CONV
        O_D=      0.0525550 O_OD=      0.3165127 O_TOT=      4.4662756 <-- SPRD
 Delta: O_D= -0.1314806E-05 O_OD=  0.1305626E-05 O_TOT= -0.9180404E-08 <-- DLTA
 ------------------------------------------------------------------------------
 Cycle:     45
  WF centre and spread    1  ( -0.902512,  0.902512,  0.902512 )     1.98424799
  WF centre and spread    2  (  0.000000,  0.000000,  0.000000 )     0.47248233
  WF centre and spread    3  (  0.000000, -0.000000,  0.000000 )     0.51235432
  WF centre and spread    4  (  0.000000, -0.000000, -0.000000 )     0.51235432
  WF centre and spread    5  ( -0.000000,  0.000000, -0.000000 )     0.47248235
  WF centre and spread    6  ( -0.000000,  0.000000, -0.000000 )     0.51235429
  Sum of centres and spreads ( -0.902512,  0.902512,  0.902512 )     4.46627560

     45    -0.808E-08     0.0001688130        4.4662755713       6.26  <-- CONV
        O_D=      0.0525535 O_OD=      0.3165142 O_TOT=      4.4662756 <-- SPRD
 Delta: O_D= -0.1499786E-05 O_OD=  0.1491704E-05 O_TOT= -0.8081650E-08 <-- DLTA
 ------------------------------------------------------------------------------
 Cycle:     46
  WF centre and spread    1  ( -0.902512,  0.902512,  0.902512 )     1.98424146
  WF centre and spread    2  (  0.000000,  0.000000,  0.000000 )     0.47248179
  WF centre and spread    3  (  0.000000, -0.000000,  0.000000 )     0.51235686
  WF centre and spread    4  (  0.000000, -0.000000, -0.000000 )     0.51235686
  WF centre and spread    5  ( -0.000000,  0.000000, -0.000000 )     0.47248180
  WF centre and spread    6  ( -0.000000,  0.000000, -0.000000 )     0.51235683
  Sum of centres and spreads ( -0.902512,  0.902512,  0.902512 )     4.46627559

     46    -0.471E-08     0.0001291749        4.4662755666       6.30  <-- CONV
        O_D=      0.0525523 O_OD=      0.3165154 O_TOT=      4.4662756 <-- SPRD
 Delta: O_D= -0.1262351E-05 O_OD=  0.1257645E-05 O_TOT= -0.4705557E-08 <-- DLTA
 ------------------------------------------------------------------------------
 Cycle:     47
  WF centre and spread    1  ( -0.902512,  0.902512,  0.902512 )     1.98423462
  WF centre and spread    2  (  0.000000,  0.000000,  0.000000 )     0.47248145
  WF centre and spread    3  (  0.000000, -0.000000,  0.000000 )     0.51235936
  WF centre and spread    4  (  0.000000, -0.000000, -0.000000 )     0.51235936
  WF centre and spread    5  ( -0.000000,  0.000000, -0.000000 )     0.47248146
  WF centre and spread    6  ( -0.000000,  0.000000, -0.000000 )     0.51235933
  Sum of centres and spreads ( -0.902512,  0.902512,  0.902512 )     4.46627559

     47    -0.306E-08     0.0001117824        4.4662755635       6.33  <-- CONV
        O_D=      0.0525511 O_OD=      0.3165166 O_TOT=      4.4662756 <-- SPRD
 Delta: O_D= -0.1127841E-05 O_OD=  0.1124786E-05 O_TOT= -0.3055701E-08 <-- DLTA
 ------------------------------------------------------------------------------
 Cycle:     48
  WF centre and spread    1  ( -0.902512,  0.902512,  0.902512 )     1.98422962
  WF centre and spread    2  (  0.000000,  0.000000,  0.000000 )     0.47248143
  WF centre and spread    3  (  0.000000, -0.000000,  0.000000 )     0.51236104
  WF centre and spread    4  (  0.000000, -0.000000, -0.000000 )     0.51236104
  WF centre and spread    5  ( -0.000000,  0.000000, -0.000000 )     0.47248145
  WF centre and spread    6  ( -0.000000,  0.000000, -0.000000 )     0.51236101
  Sum of centres and spreads ( -0.902512,  0.902512,  0.902512 )     4.46627559

     48    -0.116E-08     0.0000693551        4.4662755624       6.36  <-- CONV
        O_D=      0.0525506 O_OD=      0.3165171 O_TOT=      4.4662756 <-- SPRD
 Delta: O_D= -0.5682844E-06 O_OD=  0.5671291E-06 O_TOT= -0.1155232E-08 <-- DLTA
 ------------------------------------------------------------------------------
 Cycle:     49
  WF centre and spread    1  ( -0.902512,  0.902512,  0.902512 )     1.98422769
  WF centre and spread    2  (  0.000000,  0.000000,  0.000000 )     0.47248152
  WF centre and spread    3  (  0.000000, -0.000000,  0.000000 )     0.51236162
  WF centre and spread    4  (  0.000000, -0.000000, -0.000000 )     0.51236162
  WF centre and spread    5  ( -0.000000,  0.000000, -0.000000 )     0.47248154
  WF centre and spread    6  ( -0.000000,  0.000000, -0.000000 )     0.51236159
  Sum of centres and spreads ( -0.902512,  0.902512,  0.902512 )     4.46627559

     49    -0.823E-09     0.0000649594        4.4662755615       6.39  <-- CONV
        O_D=      0.0525504 O_OD=      0.3165172 O_TOT=      4.4662756 <-- SPRD
 Delta: O_D= -0.1159332E-06 O_OD=  0.1151101E-06 O_TOT= -0.8230492E-09 <-- DLTA
 ------------------------------------------------------------------------------
 Cycle:     50
  WF centre and spread    1  ( -0.902512,  0.902512,  0.902512 )     1.98422204
  WF centre and spread    2  (  0.000000,  0.000000,  0.000000 )     0.47248177
  WF centre and spread    3  (  0.000000, -0.000000,  0.000000 )     0.51236334
  WF centre and spread    4  (  0.000000, -0.000000, -0.000000 )     0.51236334
  WF centre and spread    5  ( -0.000000,  0.000000, -0.000000 )     0.47248178
  WF centre and spread    6  ( -0.000000,  0.000000, -0.000000 )     0.51236331
  Sum of centres and spreads ( -0.902512,  0.902512,  0.902512 )     4.46627559

     50    -0.133E-08     0.0000534943        4.4662755602       6.42  <-- CONV
        O_D=      0.0525501 O_OD=      0.3165176 O_TOT=      4.4662756 <-- SPRD
 Delta: O_D= -0.3873653E-06 O_OD=  0.3860367E-06 O_TOT= -0.1328675E-08 <-- DLTA
 ------------------------------------------------------------------------------
 Cycle:     51
  WF centre and spread    1  ( -0.902512,  0.902512,  0.902512 )     1.98421622
  WF centre and spread    2  (  0.000000,  0.000000,  0.000000 )     0.47248197
  WF centre and spread    3  (  0.000000, -0.000000,  0.000000 )     0.51236515
  WF centre and spread    4  (  0.000000, -0.000000, -0.000000 )     0.51236515
  WF centre and spread    5  ( -0.000000,  0.000000, -0.000000 )     0.47248199
  WF centre and spread    6  ( -0.000000,  0.000000, -0.000000 )     0.51236512
  Sum of centres and spreads ( -0.902512,  0.902512,  0.902512 )     4.46627559

     51    -0.102E-08     0.0000491866        4.4662755592       6.46  <-- CONV
        O_D=      0.0525496 O_OD=      0.3165181 O_TOT=      4.4662756 <-- SPRD
 Delta: O_D= -0.4739551E-06 O_OD=  0.4729318E-06 O_TOT= -0.1023312E-08 <-- DLTA
 ------------------------------------------------------------------------------
 Cycle:     52
[...]
 ------------------------------------------------------------------------------
 Cycle:     82
  WF centre and spread    1  ( -0.902512,  0.902512,  0.902512 )     1.98419601
  WF centre and spread    2  (  0.000000,  0.000000,  0.000000 )     0.47248204
  WF centre and spread    3  (  0.000000, -0.000000,  0.000000 )     0.51237184
  WF centre and spread    4  (  0.000000, -0.000000, -0.000000 )     0.51237184
  WF centre and spread    5  ( -0.000000,  0.000000, -0.000000 )     0.47248206
  WF centre and spread    6  ( -0.000000,  0.000000, -0.000000 )     0.51237181
  Sum of centres and spreads ( -0.902512,  0.902512,  0.902512 )     4.46627560

     82    -0.287E-11     0.0000046443        4.4662755569       7.46  <-- CONV
        O_D=      0.0525473 O_OD=      0.3165204 O_TOT=      4.4662756 <-- SPRD
 Delta: O_D= -0.9884144E-08 O_OD=  0.9881275E-08 O_TOT= -0.2868816E-11 <-- DLTA
 ------------------------------------------------------------------------------
 Cycle:     83
  WF centre and spread    1  ( -0.902512,  0.902512,  0.902512 )     1.98419589
  WF centre and spread    2  (  0.000000,  0.000000,  0.000000 )     0.47248204
  WF centre and spread    3  (  0.000000, -0.000000,  0.000000 )     0.51237188
  WF centre and spread    4  (  0.000000, -0.000000, -0.000000 )     0.51237188
  WF centre and spread    5  ( -0.000000,  0.000000, -0.000000 )     0.47248206
  WF centre and spread    6  ( -0.000000,  0.000000, -0.000000 )     0.51237185
  Sum of centres and spreads ( -0.902512,  0.902512,  0.902512 )     4.46627560

     83    -0.363E-11     0.0000044766        4.4662755569       7.49  <-- CONV
        O_D=      0.0525473 O_OD=      0.3165204 O_TOT=      4.4662756 <-- SPRD
 Delta: O_D= -0.1355745E-07 O_OD=  0.1355382E-07 O_TOT= -0.3633538E-11 <-- DLTA
 ------------------------------------------------------------------------------
 Cycle:     84
  WF centre and spread    1  ( -0.902512,  0.902512,  0.902512 )     1.98419572
  WF centre and spread    2  (  0.000000,  0.000000,  0.000000 )     0.47248204
  WF centre and spread    3  (  0.000000, -0.000000,  0.000000 )     0.51237194
  WF centre and spread    4  (  0.000000, -0.000000, -0.000000 )     0.51237194
  WF centre and spread    5  ( -0.000000,  0.000000, -0.000000 )     0.47248206
  WF centre and spread    6  ( -0.000000,  0.000000, -0.000000 )     0.51237191
  Sum of centres and spreads ( -0.902512,  0.902512,  0.902512 )     4.46627560

     84    -0.491E-11     0.0000044710        4.4662755569       7.52  <-- CONV
        O_D=      0.0525473 O_OD=      0.3165204 O_TOT=      4.4662756 <-- SPRD
 Delta: O_D= -0.1931196E-07 O_OD=  0.1930704E-07 O_TOT= -0.4912515E-11 <-- DLTA
 ------------------------------------------------------------------------------
 Cycle:     85
  WF centre and spread    1  ( -0.902512,  0.902512,  0.902512 )     1.98419571
  WF centre and spread    2  (  0.000000,  0.000000,  0.000000 )     0.47248204
  WF centre and spread    3  (  0.000000, -0.000000,  0.000000 )     0.51237194
  WF centre and spread    4  (  0.000000, -0.000000, -0.000000 )     0.51237194
  WF centre and spread    5  ( -0.000000,  0.000000, -0.000000 )     0.47248206
  WF centre and spread    6  ( -0.000000,  0.000000, -0.000000 )     0.51237191
  Sum of centres and spreads ( -0.902512,  0.902512,  0.902512 )     4.46627560

     85     0.184E-12     0.0000045987        4.4662755569       7.55  <-- CONV
        O_D=      0.0525473 O_OD=      0.3165204 O_TOT=      4.4662756 <-- SPRD
 Delta: O_D= -0.8839491E-09 O_OD=  0.8841322E-09 O_TOT=  0.1838529E-12 <-- DLTA
 ------------------------------------------------------------------------------
 Cycle:     86
  WF centre and spread    1  ( -0.902512,  0.902512,  0.902512 )     1.98419568
  WF centre and spread    2  (  0.000000,  0.000000,  0.000000 )     0.47248204
  WF centre and spread    3  (  0.000000, -0.000000,  0.000000 )     0.51237195
  WF centre and spread    4  (  0.000000, -0.000000, -0.000000 )     0.51237195
  WF centre and spread    5  ( -0.000000,  0.000000, -0.000000 )     0.47248206
  WF centre and spread    6  ( -0.000000,  0.000000, -0.000000 )     0.51237192
  Sum of centres and spreads ( -0.902512,  0.902512,  0.902512 )     4.46627560

     86    -0.532E-12     0.0000045605        4.4662755569       7.58  <-- CONV
        O_D=      0.0525472 O_OD=      0.3165204 O_TOT=      4.4662756 <-- SPRD
 Delta: O_D= -0.3359631E-08 O_OD=  0.3359099E-08 O_TOT= -0.5320189E-12 <-- DLTA
 ------------------------------------------------------------------------------
 Cycle:     87
  WF centre and spread    1  ( -0.902512,  0.902512,  0.902512 )     1.98419563
  WF centre and spread    2  (  0.000000,  0.000000,  0.000000 )     0.47248204
  WF centre and spread    3  (  0.000000, -0.000000,  0.000000 )     0.51237197
  WF centre and spread    4  (  0.000000, -0.000000, -0.000000 )     0.51237197
  WF centre and spread    5  ( -0.000000,  0.000000, -0.000000 )     0.47248206
  WF centre and spread    6  ( -0.000000,  0.000000, -0.000000 )     0.51237194
  Sum of centres and spreads ( -0.902512,  0.902512,  0.902512 )     4.46627560

     87    -0.140E-11     0.0000044287        4.4662755569       7.61  <-- CONV
        O_D=      0.0525472 O_OD=      0.3165204 O_TOT=      4.4662756 <-- SPRD
 Delta: O_D= -0.6507437E-08 O_OD=  0.6506035E-08 O_TOT= -0.1402434E-11 <-- DLTA
 ------------------------------------------------------------------------------
 Cycle:     88
  WF centre and spread    1  ( -0.902512,  0.902512,  0.902512 )     1.98419556
  WF centre and spread    2  (  0.000000,  0.000000,  0.000000 )     0.47248205
  WF centre and spread    3  (  0.000000, -0.000000,  0.000000 )     0.51237199
  WF centre and spread    4  (  0.000000, -0.000000, -0.000000 )     0.51237199
  WF centre and spread    5  ( -0.000000,  0.000000, -0.000000 )     0.47248206
  WF centre and spread    6  ( -0.000000,  0.000000, -0.000000 )     0.51237196
  Sum of centres and spreads ( -0.902512,  0.902512,  0.902512 )     4.46627561

     88    -0.201E-11     0.0000042353        4.4662755569       7.65  <-- CONV
        O_D=      0.0525472 O_OD=      0.3165205 O_TOT=      4.4662756 <-- SPRD
 Delta: O_D= -0.9285576E-08 O_OD=  0.9283567E-08 O_TOT= -0.2009060E-11 <-- DLTA
 ------------------------------------------------------------------------------
 Cycle:     89
  WF centre and spread    1  ( -0.902512,  0.902512,  0.902512 )     1.98419546
  WF centre and spread    2  (  0.000000,  0.000000,  0.000000 )     0.47248205
  WF centre and spread    3  (  0.000000, -0.000000,  0.000000 )     0.51237202
  WF centre and spread    4  (  0.000000, -0.000000, -0.000000 )     0.51237202
  WF centre and spread    5  ( -0.000000,  0.000000, -0.000000 )     0.47248206
  WF centre and spread    6  ( -0.000000,  0.000000, -0.000000 )     0.51237199
  Sum of centres and spreads ( -0.902512,  0.902512,  0.902512 )     4.46627561

     89    -0.265E-11     0.0000040832        4.4662755569       7.68  <-- CONV
        O_D=      0.0525472 O_OD=      0.3165205 O_TOT=      4.4662756 <-- SPRD
 Delta: O_D= -0.1240557E-07 O_OD=  0.1240292E-07 O_TOT= -0.2650324E-11 <-- DLTA
 ------------------------------------------------------------------------------
 Cycle:     90
  WF centre and spread    1  ( -0.902512,  0.902512,  0.902512 )     1.98419532
  WF centre and spread    2  (  0.000000,  0.000000,  0.000000 )     0.47248205
  WF centre and spread    3  (  0.000000, -0.000000,  0.000000 )     0.51237207
  WF centre and spread    4  (  0.000000, -0.000000, -0.000000 )     0.51237207
  WF centre and spread    5  ( -0.000000,  0.000000, -0.000000 )     0.47248206
  WF centre and spread    6  ( -0.000000,  0.000000, -0.000000 )     0.51237204
  Sum of centres and spreads ( -0.902512,  0.902512,  0.902512 )     4.46627561

     90    -0.347E-11     0.0000040357        4.4662755569       7.71  <-- CONV
        O_D=      0.0525472 O_OD=      0.3165205 O_TOT=      4.4662756 <-- SPRD
 Delta: O_D= -0.1645981E-07 O_OD=  0.1645635E-07 O_TOT= -0.3468337E-11 <-- DLTA
 ------------------------------------------------------------------------------
 Cycle:     91
  WF centre and spread    1  ( -0.902512,  0.902512,  0.902512 )     1.98419532
  WF centre and spread    2  (  0.000000,  0.000000,  0.000000 )     0.47248205
  WF centre and spread    3  (  0.000000, -0.000000,  0.000000 )     0.51237207
  WF centre and spread    4  (  0.000000, -0.000000, -0.000000 )     0.51237207
  WF centre and spread    5  ( -0.000000,  0.000000, -0.000000 )     0.47248206
  WF centre and spread    6  ( -0.000000,  0.000000, -0.000000 )     0.51237204
  Sum of centres and spreads ( -0.902512,  0.902512,  0.902512 )     4.46627561

     91     0.288E-12     0.0000040934        4.4662755569       7.74  <-- CONV
        O_D=      0.0525472 O_OD=      0.3165205 O_TOT=      4.4662756 <-- SPRD
 Delta: O_D= -0.5469397E-09 O_OD=  0.5472272E-09 O_TOT=  0.2877698E-12 <-- DLTA
 ------------------------------------------------------------------------------
 Cycle:     92
  WF centre and spread    1  ( -0.902512,  0.902512,  0.902512 )     1.98419530
  WF centre and spread    2  (  0.000000,  0.000000,  0.000000 )     0.47248205
  WF centre and spread    3  (  0.000000, -0.000000,  0.000000 )     0.51237208
  WF centre and spread    4  (  0.000000, -0.000000, -0.000000 )     0.51237208
  WF centre and spread    5  ( -0.000000,  0.000000, -0.000000 )     0.47248206
  WF centre and spread    6  ( -0.000000,  0.000000, -0.000000 )     0.51237205
  Sum of centres and spreads ( -0.902512,  0.902512,  0.902512 )     4.46627561

     92    -0.194E-12     0.0000040734        4.4662755569       7.77  <-- CONV
        O_D=      0.0525472 O_OD=      0.3165205 O_TOT=      4.4662756 <-- SPRD
 Delta: O_D= -0.2137608E-08 O_OD=  0.2137414E-08 O_TOT= -0.1936229E-12 <-- DLTA
 ------------------------------------------------------------------------------
 Cycle:     93
  WF centre and spread    1  ( -0.902512,  0.902512,  0.902512 )     1.98419526
  WF centre and spread    2  (  0.000000,  0.000000,  0.000000 )     0.47248205
  WF centre and spread    3  (  0.000000, -0.000000,  0.000000 )     0.51237209
  WF centre and spread    4  (  0.000000, -0.000000, -0.000000 )     0.51237209
  WF centre and spread    5  ( -0.000000,  0.000000, -0.000000 )     0.47248206
  WF centre and spread    6  ( -0.000000,  0.000000, -0.000000 )     0.51237206
  Sum of centres and spreads ( -0.902512,  0.902512,  0.902512 )     4.46627561

     93    -0.818E-12     0.0000040016        4.4662755569       7.80  <-- CONV
        O_D=      0.0525472 O_OD=      0.3165205 O_TOT=      4.4662756 <-- SPRD
 Delta: O_D= -0.4342775E-08 O_OD=  0.4341957E-08 O_TOT= -0.8180123E-12 <-- DLTA
 ------------------------------------------------------------------------------
 Cycle:     94
  WF centre and spread    1  ( -0.902512,  0.902512,  0.902512 )     1.98419519
  WF centre and spread    2  (  0.000000,  0.000000,  0.000000 )     0.47248205
  WF centre and spread    3  (  0.000000, -0.000000,  0.000000 )     0.51237211
  WF centre and spread    4  (  0.000000, -0.000000, -0.000000 )     0.51237211
  WF centre and spread    5  ( -0.000000,  0.000000, -0.000000 )     0.47248206
  WF centre and spread    6  ( -0.000000,  0.000000, -0.000000 )     0.51237208
  Sum of centres and spreads ( -0.902512,  0.902512,  0.902512 )     4.46627561

     94    -0.144E-11     0.0000038856        4.4662755569       7.84  <-- CONV
        O_D=      0.0525472 O_OD=      0.3165205 O_TOT=      4.4662756 <-- SPRD
 Delta: O_D= -0.6835895E-08 O_OD=  0.6834457E-08 O_TOT= -0.1437961E-11 <-- DLTA
 ------------------------------------------------------------------------------
 Cycle:     95
  WF centre and spread    1  ( -0.902512,  0.902512,  0.902512 )     1.98419511
  WF centre and spread    2  (  0.000000,  0.000000,  0.000000 )     0.47248205
  WF centre and spread    3  (  0.000000, -0.000000,  0.000000 )     0.51237214
  WF centre and spread    4  (  0.000000, -0.000000, -0.000000 )     0.51237214
  WF centre and spread    5  ( -0.000000,  0.000000, -0.000000 )     0.47248206
  WF centre and spread    6  ( -0.000000,  0.000000, -0.000000 )     0.51237211
  Sum of centres and spreads ( -0.902512,  0.902512,  0.902512 )     4.46627561

     95    -0.201E-11     0.0000037717        4.4662755569       7.87  <-- CONV
        O_D=      0.0525472 O_OD=      0.3165205 O_TOT=      4.4662756 <-- SPRD
 Delta: O_D= -0.9528335E-08 O_OD=  0.9526321E-08 O_TOT= -0.2014389E-11 <-- DLTA
 ------------------------------------------------------------------------------
 Cycle:     96
  WF centre and spread    1  ( -0.902512,  0.902512,  0.902512 )     1.98419499
  WF centre and spread    2  (  0.000000,  0.000000,  0.000000 )     0.47248205
  WF centre and spread    3  (  0.000000, -0.000000,  0.000000 )     0.51237218
  WF centre and spread    4  (  0.000000, -0.000000, -0.000000 )     0.51237218
  WF centre and spread    5  ( -0.000000,  0.000000, -0.000000 )     0.47248206
  WF centre and spread    6  ( -0.000000,  0.000000, -0.000000 )     0.51237215
  Sum of centres and spreads ( -0.902512,  0.902512,  0.902512 )     4.46627561

     96    -0.271E-11     0.0000037084        4.4662755569       7.90  <-- CONV
        O_D=      0.0525472 O_OD=      0.3165205 O_TOT=      4.4662756 <-- SPRD
 Delta: O_D= -0.1294605E-07 O_OD=  0.1294335E-07 O_TOT= -0.2705391E-11 <-- DLTA
 ------------------------------------------------------------------------------
 Cycle:     97
  WF centre and spread    1  ( -0.902512,  0.902512,  0.902512 )     1.98419499
  WF centre and spread    2  (  0.000000,  0.000000,  0.000000 )     0.47248205
  WF centre and spread    3  (  0.000000, -0.000000,  0.000000 )     0.51237218
  WF centre and spread    4  (  0.000000, -0.000000, -0.000000 )     0.51237218
  WF centre and spread    5  ( -0.000000,  0.000000, -0.000000 )     0.47248206
  WF centre and spread    6  ( -0.000000,  0.000000, -0.000000 )     0.51237215
  Sum of centres and spreads ( -0.902512,  0.902512,  0.902512 )     4.46627561

     97     0.345E-12     0.0000037044        4.4662755569       7.93  <-- CONV
        O_D=      0.0525472 O_OD=      0.3165205 O_TOT=      4.4662756 <-- SPRD
 Delta: O_D= -0.4726415E-09 O_OD=  0.4729861E-09 O_TOT=  0.3446132E-12 <-- DLTA
 ------------------------------------------------------------------------------
 Cycle:     98
  WF centre and spread    1  ( -0.902512,  0.902512,  0.902512 )     1.98419497
  WF centre and spread    2  (  0.000000,  0.000000,  0.000000 )     0.47248205
  WF centre and spread    3  (  0.000000, -0.000000,  0.000000 )     0.51237218
  WF centre and spread    4  (  0.000000, -0.000000, -0.000000 )     0.51237219
  WF centre and spread    5  ( -0.000000,  0.000000, -0.000000 )     0.47248206
  WF centre and spread    6  ( -0.000000,  0.000000, -0.000000 )     0.51237216
  Sum of centres and spreads ( -0.902512,  0.902512,  0.902512 )     4.46627561

     98     0.622E-14     0.0000036934        4.4662755569       7.96  <-- CONV
        O_D=      0.0525472 O_OD=      0.3165205 O_TOT=      4.4662756 <-- SPRD
 Delta: O_D= -0.1878807E-08 O_OD=  0.1878813E-08 O_TOT=  0.6217249E-14 <-- DLTA
 ------------------------------------------------------------------------------
 Cycle:     99
  WF centre and spread    1  ( -0.902512,  0.902512,  0.902512 )     1.98419494
  WF centre and spread    2  (  0.000000,  0.000000,  0.000000 )     0.47248205
  WF centre and spread    3  (  0.000000, -0.000000,  0.000000 )     0.51237220
  WF centre and spread    4  (  0.000000, -0.000000, -0.000000 )     0.51237220
  WF centre and spread    5  ( -0.000000,  0.000000, -0.000000 )     0.47248206
  WF centre and spread    6  ( -0.000000,  0.000000, -0.000000 )     0.51237217
  Sum of centres and spreads ( -0.902512,  0.902512,  0.902512 )     4.46627561

     99    -0.472E-12     0.0000036527        4.4662755569       8.00  <-- CONV
        O_D=      0.0525472 O_OD=      0.3165205 O_TOT=      4.4662756 <-- SPRD
 Delta: O_D= -0.3955495E-08 O_OD=  0.3955024E-08 O_TOT= -0.4716227E-12 <-- DLTA
 ------------------------------------------------------------------------------
 Cycle:    100
  WF centre and spread    1  ( -0.902512,  0.902512,  0.902512 )     1.98419489
  WF centre and spread    2  (  0.000000,  0.000000,  0.000000 )     0.47248205
  WF centre and spread    3  (  0.000000, -0.000000,  0.000000 )     0.51237221
  WF centre and spread    4  (  0.000000, -0.000000, -0.000000 )     0.51237221
  WF centre and spread    5  ( -0.000000,  0.000000, -0.000000 )     0.47248206
  WF centre and spread    6  ( -0.000000,  0.000000, -0.000000 )     0.51237218
  Sum of centres and spreads ( -0.902512,  0.902512,  0.902512 )     4.46627561

    100    -0.103E-11     0.0000035820        4.4662755569       8.03  <-- CONV
        O_D=      0.0525472 O_OD=      0.3165205 O_TOT=      4.4662756 <-- SPRD
 Delta: O_D= -0.6516800E-08 O_OD=  0.6515765E-08 O_TOT= -0.1034728E-11 <-- DLTA
 ------------------------------------------------------------------------------

 Writing checkpoint file Cu.chk... done

 Final State
  WF centre and spread    1  ( -0.902512,  0.902512,  0.902512 )     1.98419489
  WF centre and spread    2  (  0.000000,  0.000000,  0.000000 )     0.47248205
  WF centre and spread    3  (  0.000000, -0.000000,  0.000000 )     0.51237221
  WF centre and spread    4  (  0.000000, -0.000000, -0.000000 )     0.51237221
  WF centre and spread    5  ( -0.000000,  0.000000, -0.000000 )     0.47248206
  WF centre and spread    6  ( -0.000000,  0.000000, -0.000000 )     0.51237218
  Sum of centres and spreads ( -0.902512,  0.902512,  0.902512 )     4.46627561

         Spreads (Ang^2)       Omega I      =     4.097207874
        ================       Omega D      =     0.052547155
                               Omega OD     =     0.316520529
    Final Spread (Ang^2)       Omega Total  =     4.466275557
 ------------------------------------------------------------------------------
 Time for wannierise            3.253 (sec)

 Writing checkpoint file Cu.chk... done

 *---------------------------------------------------------------------------*
 |                               PLOTTING                                    |
 *---------------------------------------------------------------------------*


 Calculating interpolated band-structure

 Time to calculate interpolated band structure       0.756 (sec)

      Wannier Function Num:    1       Maximum Im/Re Ratio =    0.000001
      Wannier Function Num:    2       Maximum Im/Re Ratio =    0.000000
      Wannier Function Num:    3       Maximum Im/Re Ratio =    0.000001
      Wannier Function Num:    4       Maximum Im/Re Ratio =    0.000001
      Wannier Function Num:    5       Maximum Im/Re Ratio =    0.000001
      Wannier Function Num:    6       Maximum Im/Re Ratio =    0.000001
  
 Time for plotting             33.562 (sec)
 Total Execution Time          42.274 (sec)

 *===========================================================================*
 |                             TIMING INFORMATION                            |
 *===========================================================================*
 |    Tag                                                Ncalls      Time (s)|
 |---------------------------------------------------------------------------|
 |kmesh: get                                        :         1         0.238|
 |overlap: allocate                                 :         1         0.000|
 |overlap: read                                     :         1         0.564|
 |dis: main                                         :         1         4.414|
 |wann: main                                        :         1         3.253|
 |plot: main                                        :         1        33.562|
 *---------------------------------------------------------------------------*

 All done: wannier90 exiting
