
     Program PWSCF v.6.4 starts on  2May2022 at 12:11:34 

     This program is part of the open-source Quantum ESPRESSO suite
     for quantum simulation of materials; please cite
         "P. Giannozzi et al., J. Phys.:Condens. Matter 21 395502 (2009);
         "P. Giannozzi et al., J. Phys.:Condens. Matter 29 465901 (2017);
          URL http://www.quantum-espresso.org", 
     in publications or presentations arising from this work. More details at
     http://www.quantum-espresso.org/quote

     Parallel version (MPI), running on     8 processors

     MPI processes distributed on     1 nodes
     R & G space division:  proc/nbgrp/npool/nimage =       8
     Waiting for input...
     Reading input from standard input

     Current dimensions of program PWSCF are:
     Max number of different atomic species (ntypx) = 10
     Max number of k-points (npk) =  40000
     Max angular momentum in pseudopotentials (lmaxx) =  3

     Atomic positions and unit cell read from directory:
     /scratch/irmik/jobs/580594/out/bi2se3.save/
 

     Subspace diagonalization in iterative solution of the eigenvalue problem:
     one sub-group per band group will be used
     scalapack distributed-memory algorithm (size of sub-group:  2*  2 procs)

 
     Parallelization info
     --------------------
     sticks:   dense  smooth     PW     G-vecs:    dense   smooth      PW
     Min         187     187     55                 3079     3079     493
     Max         188     188     56                 3080     3080     494
     Sum        1501    1501    443                24637    24637    3947
 


     bravais-lattice index     =            0
     lattice parameter (alat)  =       1.8897  a.u.
     unit-cell volume          =     957.5208 (a.u.)^3
     number of atoms/cell      =            5
     number of atomic types    =            2
     number of electrons       =        78.00
     number of Kohn-Sham states=           94
     kinetic-energy cutoff     =      33.0900  Ry
     charge density cutoff     =     132.3600  Ry
     Exchange-correlation      = PBE ( 1  4  3  4 0 0)
     Non magnetic calculation with spin-orbit


     celldm(1)=   1.889726  celldm(2)=   0.000000  celldm(3)=   0.000000
     celldm(4)=   0.000000  celldm(5)=   0.000000  celldm(6)=   0.000000

     crystal axes: (cart. coord. in units of alat)
               a(1) = (   2.071500   1.195981   9.545333 )  
               a(2) = (  -2.071500   1.195981   9.545333 )  
               a(3) = (   0.000000  -2.391962   9.545333 )  

     reciprocal axes: (cart. coord. in units 2 pi/alat)
               b(1) = (  0.241371  0.139356  0.034921 )  
               b(2) = ( -0.241371  0.139356  0.034921 )  
               b(3) = (  0.000000 -0.278711  0.034921 )  


     PseudoPot. # 1 for Bi read from file:
     /scratch/irmik/jobs/580594/pseudo/Bi.upf
     MD5 check sum: 260977096fd1df4b879f04c556a28fcb
     Pseudo is Norm-conserving + core correction, Zval = 15.0
     Generated using ONCVPSP code by D. R. Hamann
     Using radial grid of 1562 points, 10 beta functions with: 
                l(1) =   0
                l(2) =   0
                l(3) =   1
                l(4) =   1
                l(5) =   1
                l(6) =   1
                l(7) =   2
                l(8) =   2
                l(9) =   2
               l(10) =   2

     PseudoPot. # 2 for Se read from file:
     /scratch/irmik/jobs/580594/pseudo/Se.upf
     MD5 check sum: cb2cefba1335ec1a0ef320de5a6fd81a
     Pseudo is Norm-conserving + core correction, Zval = 16.0
     Generated using ONCVPSP code by D. R. Hamann
     Using radial grid of 1214 points, 10 beta functions with: 
                l(1) =   0
                l(2) =   0
                l(3) =   1
                l(4) =   1
                l(5) =   1
                l(6) =   1
                l(7) =   2
                l(8) =   2
                l(9) =   2
               l(10) =   2

     atomic species   valence    mass     pseudopotential
        Bi            15.00   209.00000     Bi( 1.00)
        Se            16.00    79.00000     Se( 1.00)

     12 Sym. Ops., with inversion, found



   Cartesian axes

     site n.     atom                  positions (alat units)
         1           Bi  tau(   1) = (  -0.0000000  -0.0000000  17.2245540  )
         2           Bi  tau(   2) = (  -0.0000000   0.0000000  11.4114460  )
         3           Se  tau(   3) = (   0.0000000   0.0000000   0.0000000  )
         4           Se  tau(   4) = (   0.0000000   0.0000000  22.5794860  )
         5           Se  tau(   5) = (   0.0000000   0.0000000   6.0565140  )

     number of k points=    61  Marzari-Vanderbilt smearing, width (Ry)=  0.0001
                       cart. coord. in units 2pi/alat
        k(    1) = (   0.0000000   0.1393556   0.0349211), wk =   0.0163934
        k(    2) = (   0.0000000   0.1300652   0.0325930), wk =   0.0163934
        k(    3) = (   0.0000000   0.1207749   0.0302649), wk =   0.0163934
        k(    4) = (   0.0000000   0.1114845   0.0279369), wk =   0.0163934
        k(    5) = (   0.0000000   0.1021941   0.0256088), wk =   0.0163934
        k(    6) = (   0.0000000   0.0929037   0.0232807), wk =   0.0163934
        k(    7) = (   0.0000000   0.0836134   0.0209526), wk =   0.0163934
        k(    8) = (   0.0000000   0.0743230   0.0186246), wk =   0.0163934
        k(    9) = (   0.0000000   0.0650326   0.0162965), wk =   0.0163934
        k(   10) = (   0.0000000   0.0557422   0.0139684), wk =   0.0163934
        k(   11) = (   0.0000000   0.0464519   0.0116404), wk =   0.0163934
        k(   12) = (   0.0000000   0.0371615   0.0093123), wk =   0.0163934
        k(   13) = (   0.0000000   0.0278711   0.0069842), wk =   0.0163934
        k(   14) = (   0.0000000   0.0185807   0.0046561), wk =   0.0163934
        k(   15) = (   0.0000000   0.0092904   0.0023281), wk =   0.0163934
        k(   16) = (   0.0000000   0.0000000   0.0000000), wk =   0.0163934
        k(   17) = (  -0.0080457   0.0046452   0.0011640), wk =   0.0163934
        k(   18) = (  -0.0160914   0.0092904   0.0023281), wk =   0.0163934
        k(   19) = (  -0.0241371   0.0139356   0.0034921), wk =   0.0163934
        k(   20) = (  -0.0321828   0.0185807   0.0046561), wk =   0.0163934
        k(   21) = (  -0.0402285   0.0232259   0.0058202), wk =   0.0163934
        k(   22) = (  -0.0482742   0.0278711   0.0069842), wk =   0.0163934
        k(   23) = (  -0.0563199   0.0325163   0.0081483), wk =   0.0163934
        k(   24) = (  -0.0643656   0.0371615   0.0093123), wk =   0.0163934
        k(   25) = (  -0.0724113   0.0418067   0.0104763), wk =   0.0163934
        k(   26) = (  -0.0804570   0.0464519   0.0116404), wk =   0.0163934
        k(   27) = (  -0.0885027   0.0510971   0.0128044), wk =   0.0163934
        k(   28) = (  -0.0965484   0.0557422   0.0139684), wk =   0.0163934
        k(   29) = (  -0.1045941   0.0603874   0.0151325), wk =   0.0163934
        k(   30) = (  -0.1126398   0.0650326   0.0162965), wk =   0.0163934
        k(   31) = (  -0.1206855   0.0696778   0.0174605), wk =   0.0163934
        k(   32) = (  -0.1126398   0.0650326   0.0197886), wk =   0.0163934
        k(   33) = (  -0.1045941   0.0603874   0.0221167), wk =   0.0163934
        k(   34) = (  -0.0965484   0.0557422   0.0244448), wk =   0.0163934
        k(   35) = (  -0.0885027   0.0510971   0.0267728), wk =   0.0163934
        k(   36) = (  -0.0804570   0.0464519   0.0291009), wk =   0.0163934
        k(   37) = (  -0.0724113   0.0418067   0.0314290), wk =   0.0163934
        k(   38) = (  -0.0643656   0.0371615   0.0337570), wk =   0.0163934
        k(   39) = (  -0.0563199   0.0325163   0.0360851), wk =   0.0163934
        k(   40) = (  -0.0482742   0.0278711   0.0384132), wk =   0.0163934
        k(   41) = (  -0.0402285   0.0232259   0.0407413), wk =   0.0163934
        k(   42) = (  -0.0321828   0.0185807   0.0430693), wk =   0.0163934
        k(   43) = (  -0.0241371   0.0139356   0.0453974), wk =   0.0163934
        k(   44) = (  -0.0160914   0.0092904   0.0477255), wk =   0.0163934
        k(   45) = (  -0.0080457   0.0046452   0.0500535), wk =   0.0163934
        k(   46) = (   0.0000000   0.0000000   0.0523816), wk =   0.0163934
        k(   47) = (   0.0000000   0.0000000   0.0488895), wk =   0.0163934
        k(   48) = (   0.0000000   0.0000000   0.0453974), wk =   0.0163934
        k(   49) = (   0.0000000   0.0000000   0.0419053), wk =   0.0163934
        k(   50) = (   0.0000000   0.0000000   0.0384132), wk =   0.0163934
        k(   51) = (   0.0000000   0.0000000   0.0349211), wk =   0.0163934
        k(   52) = (   0.0000000   0.0000000   0.0314290), wk =   0.0163934
        k(   53) = (   0.0000000   0.0000000   0.0279369), wk =   0.0163934
        k(   54) = (   0.0000000   0.0000000   0.0244448), wk =   0.0163934
        k(   55) = (   0.0000000   0.0000000   0.0209526), wk =   0.0163934
        k(   56) = (   0.0000000   0.0000000   0.0174605), wk =   0.0163934
        k(   57) = (   0.0000000   0.0000000   0.0139684), wk =   0.0163934
        k(   58) = (   0.0000000   0.0000000   0.0104763), wk =   0.0163934
        k(   59) = (   0.0000000   0.0000000   0.0069842), wk =   0.0163934
        k(   60) = (   0.0000000   0.0000000   0.0034921), wk =   0.0163934
        k(   61) = (   0.0000000   0.0000000   0.0000000), wk =   0.0163934

     Dense  grid:    24637 G-vectors     FFT dimensions: (  72,  72,  72)

     Estimated max dynamical RAM per process >      22.60 MB

     Estimated total dynamical RAM >     180.82 MB

     Check: negative core charge=   -0.000002

     The potential is recalculated from file :
     /scratch/irmik/jobs/580594/out/bi2se3.save/charge-density

     Starting wfcs are   90 randomized atomic wfcs +    4 random wfcs

     Band Structure Calculation
     Davidson diagonalization with overlap

     ethr =  1.28E-11,  avg # of iterations = 20.5

     total cpu time spent up to now is      116.1 secs

     End of band structure calculation

          k = 0.0000 0.1394 0.0349 (  3090 PWs)   bands (ev):

   -36.9514 -36.9514 -36.5114 -36.5114 -36.4612 -36.4612 -36.1968 -36.1968
   -36.0512 -36.0512 -35.9083 -35.9083 -35.8463 -35.8463 -35.6209 -35.6209
   -35.4652 -35.4652 -35.4461 -35.4461 -35.3677 -35.3677 -35.1818 -35.1818
   -35.1151 -35.1151 -35.0774 -35.0774 -34.9003 -34.9003 -15.1821 -15.1821
   -15.1518 -15.1518 -15.1505 -15.1505 -15.1199 -15.1199 -12.3500 -12.3500
   -12.3177 -12.3177 -12.3134 -12.3134 -12.2940 -12.2940 -12.2925 -12.2925
   -12.2690 -12.2690  -4.3948  -4.3948  -4.1667  -4.1667  -4.0040  -4.0040
    -1.4189  -1.4189  -0.9208  -0.9208   4.0981   4.0981   5.1242   5.1242
     5.2730   5.2730   5.9869   5.9869   6.6840   6.6840   7.2923   7.2923
     7.5221   7.5221   7.6130   7.6130   8.2546   8.2546  10.2524  10.2524
    11.3761  11.3761  11.6373  11.6373  12.2329  12.2329  13.1861  13.1861
    13.7076  13.7076  14.3229  14.3229  16.6230  16.6230

          k = 0.0000 0.1301 0.0326 (  3093 PWs)   bands (ev):

   -37.0027 -37.0027 -36.5328 -36.5328 -36.4726 -36.4726 -36.2828 -36.2828
   -36.0782 -36.0782 -35.9573 -35.9573 -35.8376 -35.8376 -35.6425 -35.6425
   -35.5839 -35.5839 -35.4720 -35.4720 -35.3367 -35.3367 -35.2619 -35.2619
   -35.1946 -35.1946 -34.9904 -34.9904 -34.9323 -34.9323 -15.1847 -15.1847
   -15.1622 -15.1622 -15.1564 -15.1564 -15.1154 -15.1154 -12.3527 -12.3527
   -12.3265 -12.3265 -12.3170 -12.3170 -12.2967 -12.2967 -12.2884 -12.2884
   -12.2729 -12.2729  -4.4234  -4.4234  -4.1686  -4.1686  -4.0063  -4.0063
    -1.3994  -1.3994  -0.9124  -0.9124   4.0934   4.0934   5.1549   5.1549
     5.3142   5.3142   5.9985   5.9985   6.6907   6.6907   7.2877   7.2877
     7.5261   7.5261   7.6194   7.6194   8.2158   8.2158  10.2809  10.2809
    11.4048  11.4048  11.6278  11.6278  12.2434  12.2434  13.1765  13.1765
    13.7216  13.7216  14.2715  14.2715  16.6162  16.6162

          k = 0.0000 0.1208 0.0303 (  3091 PWs)   bands (ev):

   -36.7610 -36.7610 -36.6029 -36.6029 -36.3799 -36.3799 -36.3015 -36.3015
   -36.1563 -36.1563 -35.9105 -35.9105 -35.7616 -35.7616 -35.6433 -35.6433
   -35.5806 -35.5806 -35.4920 -35.4920 -35.3520 -35.3520 -35.1686 -35.1686
   -35.0945 -35.0945 -35.0553 -35.0553 -34.8709 -34.8709 -15.1769 -15.1769
   -15.1620 -15.1620 -15.1518 -15.1518 -15.1142 -15.1142 -12.3396 -12.3396
   -12.3274 -12.3274 -12.3199 -12.3199 -12.2934 -12.2934 -12.2866 -12.2866
   -12.2703 -12.2703  -4.4972  -4.4972  -4.1833  -4.1833  -4.0119  -4.0119
    -1.3433  -1.3433  -0.8864  -0.8864   4.0934   4.0934   5.2145   5.2145
     5.4538   5.4538   6.0338   6.0338   6.7115   6.7115   7.2701   7.2701
     7.5378   7.5378   7.6381   7.6381   8.1239   8.1239  10.3467  10.3467
    11.4810  11.4810  11.6021  11.6021  12.2753  12.2753  13.1473  13.1473
    13.7621  13.7621  14.1312  14.1312  16.5984  16.5984

          k = 0.0000 0.1115 0.0279 (  3096 PWs)   bands (ev):

   -36.7234 -36.7234 -36.6799 -36.6799 -36.4897 -36.4897 -36.2875 -36.2875
   -36.1052 -36.1052 -35.9965 -35.9965 -35.8390 -35.8390 -35.7827 -35.7827
   -35.6605 -35.6605 -35.4709 -35.4709 -35.4174 -35.4174 -35.2962 -35.2962
   -35.2176 -35.2176 -35.0813 -35.0813 -34.8777 -34.8777 -15.1824 -15.1824
   -15.1700 -15.1700 -15.1455 -15.1455 -15.1321 -15.1321 -12.3378 -12.3378
   -12.3322 -12.3322 -12.3257 -12.3257 -12.3120 -12.3120 -12.2871 -12.2871
   -12.2724 -12.2724  -4.5984  -4.5984  -4.2199  -4.2199  -4.0224  -4.0224
    -1.2585  -1.2585  -0.8460  -0.8460   4.1243   4.1243   5.2826   5.2826
     5.6744   5.6744   6.0948   6.0948   6.7443   6.7443   7.2296   7.2296
     7.5555   7.5555   7.6692   7.6692   8.0321   8.0321  10.4144  10.4144
    11.5174  11.5174  11.6233  11.6233  12.3344  12.3344  13.0951  13.0951
    13.7850  13.7850  13.9651  13.9651  16.5711  16.5711

          k = 0.0000 0.1022 0.0256 (  3082 PWs)   bands (ev):

   -36.6006 -36.6006 -36.4611 -36.4611 -36.2847 -36.2847 -36.1576 -36.1576
   -35.9308 -35.9308 -35.8527 -35.8527 -35.6720 -35.6720 -35.5649 -35.5649
   -35.4324 -35.4324 -35.3597 -35.3597 -35.3097 -35.3097 -35.1332 -35.1332
   -34.9708 -34.9708 -34.9010 -34.9010 -34.7547 -34.7547 -15.1672 -15.1672
   -15.1399 -15.1399 -15.1291 -15.1291 -15.1142 -15.1142 -12.3312 -12.3312
   -12.3145 -12.3145 -12.2945 -12.2945 -12.2877 -12.2877 -12.2806 -12.2806
   -12.2621 -12.2621  -4.7147  -4.7147  -4.2739  -4.2739  -4.0413  -4.0413
    -1.1567  -1.1567  -0.7892  -0.7892   4.2060   4.2060   5.3657   5.3657
     5.9202   5.9202   6.1883   6.1883   6.7894   6.7894   7.1691   7.1691
     7.5794   7.5794   7.7153   7.7153   7.9859   7.9859  10.4623  10.4623
    11.4379  11.4379  11.7280  11.7280  12.4215  12.4215  13.0234  13.0234
    13.6217  13.6217  13.9980  13.9980  16.5402  16.5402

          k = 0.0000 0.0929 0.0233 (  3081 PWs)   bands (ev):

   -36.4549 -36.4549 -36.2702 -36.2702 -36.2472 -36.2472 -36.1437 -36.1437
   -35.9889 -35.9889 -35.8699 -35.8699 -35.5949 -35.5949 -35.4931 -35.4931
   -35.3659 -35.3659 -35.3284 -35.3284 -35.2932 -35.2932 -35.1614 -35.1614
   -35.1002 -35.1002 -35.0293 -35.0293 -34.7918 -34.7918 -15.1577 -15.1577
   -15.1403 -15.1403 -15.1313 -15.1313 -15.1147 -15.1147 -12.3211 -12.3211
   -12.3138 -12.3138 -12.2978 -12.2978 -12.2869 -12.2869 -12.2782 -12.2782
   -12.2652 -12.2652  -4.8383  -4.8383  -4.3387  -4.3387  -4.0718  -4.0718
    -1.0548  -1.0548  -0.7138  -0.7138   4.3480   4.3480   5.4662   5.4662
     6.1218   6.1218   6.3154   6.3154   6.8605   6.8605   7.1226   7.1226
     7.6097   7.6097   7.7780   7.7780   7.9961   7.9961  10.4811  10.4811
    11.3100  11.3100  11.8034  11.8034  12.4740  12.4740  12.9647  12.9647
    13.3988  13.3988  14.1304  14.1304  16.4918  16.4918

          k = 0.0000 0.0836 0.0210 (  3088 PWs)   bands (ev):

   -36.5149 -36.5149 -36.4600 -36.4600 -36.2773 -36.2773 -36.2184 -36.2184
   -36.0593 -36.0593 -35.9555 -35.9555 -35.7077 -35.7077 -35.5559 -35.5559
   -35.5227 -35.5227 -35.4192 -35.4192 -35.3374 -35.3374 -35.2156 -35.2156
   -35.1163 -35.1163 -35.0732 -35.0732 -34.8791 -34.8791 -15.1646 -15.1646
   -15.1554 -15.1554 -15.1419 -15.1419 -15.1201 -15.1201 -12.3264 -12.3264
   -12.3228 -12.3228 -12.3065 -12.3065 -12.2974 -12.2974 -12.2846 -12.2846
   -12.2717 -12.2717  -4.9627  -4.9627  -4.4075  -4.4075  -4.1130  -4.1130
    -0.9687  -0.9687  -0.6147  -0.6147   4.5521   4.5521   5.5834   5.5834
     6.2579   6.2579   6.3998   6.3998   7.0029   7.0029   7.1381   7.1381
     7.6482   7.6482   7.8585   7.8585   8.0540   8.0540  10.4693  10.4693
    11.1339  11.1339  11.8357  11.8357  12.3945  12.3945  12.9781  12.9781
    13.2246  13.2246  14.2939  14.2939  16.4108  16.4108

          k = 0.0000 0.0743 0.0186 (  3082 PWs)   bands (ev):

   -36.5161 -36.5161 -36.4202 -36.4202 -36.2123 -36.2123 -36.1179 -36.1179
   -35.9430 -35.9430 -35.8359 -35.8359 -35.7157 -35.7157 -35.5161 -35.5161
   -35.4221 -35.4221 -35.3151 -35.3151 -35.2589 -35.2589 -35.0992 -35.0992
   -35.0353 -35.0353 -34.9510 -34.9510 -34.8082 -34.8082 -15.1526 -15.1526
   -15.1427 -15.1427 -15.1360 -15.1360 -15.1152 -15.1152 -12.3183 -12.3183
   -12.3086 -12.3086 -12.3036 -12.3036 -12.2911 -12.2911 -12.2781 -12.2781
   -12.2663 -12.2663  -5.0833  -5.0833  -4.4755  -4.4755  -4.1630  -4.1630
    -0.9042  -0.9042  -0.4950  -0.4950   4.8145   4.8145   5.7142   5.7142
     6.3138   6.3138   6.4595   6.4595   7.1434   7.1434   7.2753   7.2753
     7.6956   7.6956   7.9601   7.9601   8.1549   8.1549  10.4259  10.4259
    10.9097  10.9097  11.8276  11.8276  12.2248  12.2248  12.9510  12.9510
    13.1711  13.1711  14.4913  14.4913  16.2966  16.2966

          k = 0.0000 0.0650 0.0163 (  3068 PWs)   bands (ev):

   -36.3781 -36.3781 -36.2377 -36.2377 -36.0914 -36.0914 -35.8802 -35.8802
   -35.8314 -35.8314 -35.6845 -35.6845 -35.4421 -35.4421 -35.3892 -35.3892
   -35.2822 -35.2822 -35.0876 -35.0876 -35.0170 -35.0170 -34.9705 -34.9705
   -34.8774 -34.8774 -34.8180 -34.8180 -34.5978 -34.5978 -15.1469 -15.1469
   -15.1267 -15.1267 -15.1054 -15.1054 -15.0859 -15.0859 -12.3081 -12.3081
   -12.3045 -12.3045 -12.2835 -12.2835 -12.2657 -12.2657 -12.2579 -12.2579
   -12.2465 -12.2465  -5.1963  -5.1963  -4.5392  -4.5392  -4.2185  -4.2185
    -0.8565  -0.8565  -0.3672  -0.3672   5.1265   5.1265   5.8519   5.8519
     6.2963   6.2963   6.5823   6.5823   7.2317   7.2317   7.4657   7.4657
     7.7495   7.7495   8.0852   8.0852   8.2962   8.2962  10.3476  10.3476
    10.6546  10.6546  11.7758  11.7758  12.0575  12.0575  12.8390  12.8390
    13.1834  13.1834  14.7186  14.7186  16.1740  16.1740

          k = 0.0000 0.0557 0.0140 (  3068 PWs)   bands (ev):

   -36.4152 -36.4152 -36.2212 -36.2212 -36.0639 -36.0639 -35.9875 -35.9875
   -35.8469 -35.8469 -35.5825 -35.5825 -35.5003 -35.5003 -35.3209 -35.3209
   -35.2738 -35.2738 -35.1580 -35.1580 -35.0954 -35.0954 -34.9051 -34.9051
   -34.7717 -34.7717 -34.7304 -34.7304 -34.6073 -34.6073 -15.1504 -15.1504
   -15.1344 -15.1344 -15.0966 -15.0966 -15.0806 -15.0806 -12.3153 -12.3153
   -12.3030 -12.3030 -12.2834 -12.2834 -12.2690 -12.2690 -12.2543 -12.2543
   -12.2375 -12.2375  -5.2990  -5.2990  -4.5961  -4.5961  -4.2772  -4.2772
    -0.8197  -0.8197  -0.2439  -0.2439   5.4720   5.4720   5.9804   5.9804
     6.3153   6.3153   6.7261   6.7261   7.3142   7.3142   7.6035   7.6035
     7.8013   7.8013   8.2291   8.2291   8.4461   8.4461  10.2251  10.2251
    10.4159  10.4159  11.6650  11.6650  11.9439  11.9439  12.7268  12.7268
    13.1330  13.1330  14.9685  14.9685  16.0644  16.0644

          k = 0.0000 0.0465 0.0116 (  3068 PWs)   bands (ev):

   -36.2913 -36.2913 -36.1358 -36.1358 -36.1047 -36.1047 -36.0504 -36.0504
   -35.8185 -35.8185 -35.6520 -35.6520 -35.4165 -35.4165 -35.3509 -35.3509
   -35.2589 -35.2589 -35.1749 -35.1749 -35.0878 -35.0878 -34.8842 -34.8842
   -34.7995 -34.7995 -34.7241 -34.7241 -34.5812 -34.5812 -15.1459 -15.1459
   -15.1320 -15.1320 -15.1012 -15.1012 -15.0780 -15.0780 -12.3120 -12.3120
   -12.2960 -12.2960 -12.2876 -12.2876 -12.2727 -12.2727 -12.2518 -12.2518
   -12.2363 -12.2363  -5.3889  -5.3889  -4.6444  -4.6444  -4.3352  -4.3352
    -0.7897  -0.7897  -0.1341  -0.1341   5.8213   5.8213   6.0841   6.0841
     6.4303   6.4303   6.8781   6.8781   7.3839   7.3839   7.7036   7.7036
     7.8387   7.8387   8.3834   8.3834   8.5235   8.5235  10.0466  10.0466
    10.2705  10.2705  11.5027  11.5027  11.8920  11.8920  12.6302  12.6302
    13.0058  13.0058  15.2420  15.2420  15.9964  15.9964

          k = 0.0000 0.0372 0.0093 (  3069 PWs)   bands (ev):

   -36.3476 -36.3476 -36.2409 -36.2409 -36.0218 -36.0218 -35.9085 -35.9085
   -35.8472 -35.8472 -35.6338 -35.6338 -35.5374 -35.5374 -35.3776 -35.3776
   -35.1338 -35.1338 -35.0719 -35.0719 -34.9969 -34.9969 -34.9425 -34.9425
   -34.8346 -34.8346 -34.7702 -34.7702 -34.6389 -34.6389 -15.1454 -15.1454
   -15.1259 -15.1259 -15.1053 -15.1053 -15.0783 -15.0783 -12.3130 -12.3130
   -12.2931 -12.2931 -12.2796 -12.2796 -12.2766 -12.2766 -12.2521 -12.2521
   -12.2396 -12.2396  -5.4645  -5.4645  -4.6834  -4.6834  -4.3889  -4.3889
    -0.7644  -0.7644  -0.0433  -0.0433   6.0998   6.0998   6.2124   6.2124
     6.6519   6.6519   7.0352   7.0352   7.4303   7.4303   7.7916   7.7916
     7.8563   7.8563   8.4545   8.4545   8.5463   8.5463   9.8372   9.8372
    10.2383  10.2383  11.3103  11.3103  11.8739  11.8739  12.5472  12.5472
    12.8483  12.8483  15.5387  15.5387  15.9794  15.9794

          k = 0.0000 0.0279 0.0070 (  3070 PWs)   bands (ev):

   -36.3090 -36.3090 -36.1852 -36.1852 -36.0411 -36.0411 -35.9647 -35.9647
   -35.8810 -35.8810 -35.7846 -35.7846 -35.4596 -35.4596 -35.2591 -35.2591
   -35.1582 -35.1582 -35.0796 -35.0796 -35.0037 -35.0037 -34.9699 -34.9699
   -34.8688 -34.8688 -34.7257 -34.7257 -34.6012 -34.6012 -15.1555 -15.1555
   -15.1343 -15.1343 -15.0961 -15.0961 -15.0673 -15.0673 -12.3222 -12.3222
   -12.3064 -12.3064 -12.2768 -12.2768 -12.2711 -12.2711 -12.2431 -12.2431
   -12.2303 -12.2303  -5.5244  -5.5244  -4.7126  -4.7126  -4.4353  -4.4353
    -0.7434  -0.7434   0.0262   0.0262   6.2405   6.2405   6.4237   6.4237
     6.9447   6.9447   7.1995   7.1995   7.4560   7.4560   7.8324   7.8324
     7.8942   7.8942   8.2703   8.2703   8.7022   8.7022   9.6111   9.6111
    10.2800  10.2800  11.1055  11.1055  11.8421  11.8421  12.4685  12.4685
    12.7559  12.7559  15.8205  15.8205  16.0315  16.0315

          k = 0.0000 0.0186 0.0047 (  3067 PWs)   bands (ev):

   -36.2419 -36.2419 -36.1145 -36.1145 -36.0770 -36.0770 -35.9859 -35.9859
   -35.8689 -35.8689 -35.7965 -35.7965 -35.2904 -35.2904 -35.2151 -35.2151
   -35.1255 -35.1255 -35.0401 -35.0401 -34.9733 -34.9733 -34.9177 -34.9177
   -34.8301 -34.8301 -34.6226 -34.6226 -34.5347 -34.5347 -15.1465 -15.1465
   -15.1320 -15.1320 -15.0898 -15.0898 -15.0635 -15.0635 -12.3176 -12.3176
   -12.2976 -12.2976 -12.2758 -12.2758 -12.2656 -12.2656 -12.2406 -12.2406
   -12.2269 -12.2269  -5.5679  -5.5679  -4.7326  -4.7326  -4.4713  -4.4713
    -0.7273  -0.7273   0.0744   0.0744   6.3611   6.3611   6.6095   6.6095
     7.1963   7.1963   7.3604   7.3604   7.5090   7.5090   7.7985   7.7985
     7.9453   7.9453   8.0895   8.0895   8.8339   8.8339   9.3810   9.3810
    10.3431  10.3431  10.9024  10.9024  11.7574  11.7574  12.4041  12.4041
    12.7845  12.7845  15.9615  15.9615  16.2518  16.2518

          k = 0.0000 0.0093 0.0023 (  3078 PWs)   bands (ev):

   -36.4546 -36.4546 -36.3774 -36.3774 -36.3037 -36.3037 -36.1777 -36.1777
   -36.1199 -36.1199 -35.9051 -35.9051 -35.3604 -35.3604 -35.2920 -35.2920
   -35.1604 -35.1604 -35.1221 -35.1221 -35.0201 -35.0201 -34.9351 -34.9351
   -34.8211 -34.8211 -34.7969 -34.7969 -34.6478 -34.6478 -15.1578 -15.1578
   -15.1410 -15.1410 -15.1081 -15.1081 -15.0837 -15.0837 -12.3412 -12.3412
   -12.2937 -12.2937 -12.2818 -12.2818 -12.2744 -12.2744 -12.2617 -12.2617
   -12.2405 -12.2405  -5.5941  -5.5941  -4.7441  -4.7441  -4.4941  -4.4941
    -0.7171  -0.7171   0.1023   0.1023   6.4604   6.4604   6.7515   6.7515
     7.3415   7.3415   7.4088   7.4088   7.5940   7.5940   7.7717   7.7717
     7.8550   7.8550   8.1509   8.1509   8.8744   8.8744   9.2126   9.2126
    10.4022  10.4022  10.7263  10.7263  11.6586  11.6586  12.3679  12.3679
    12.8671  12.8671  16.0007  16.0007  16.3599  16.3599

          k = 0.0000 0.0000 0.0000 (  3063 PWs)   bands (ev):

   -36.3512 -36.3512 -36.3096 -36.3096 -36.1634 -36.1634 -36.1473 -36.1473
   -35.8972 -35.8972 -35.8939 -35.8939 -35.0631 -35.0631 -35.0327 -35.0327
   -34.9771 -34.9771 -34.8210 -34.8210 -34.8018 -34.8018 -34.7621 -34.7621
   -34.6347 -34.6347 -34.5269 -34.5269 -34.5035 -34.5035 -15.1434 -15.1434
   -15.1043 -15.1043 -15.0939 -15.0939 -15.0644 -15.0644 -12.3266 -12.3266
   -12.2745 -12.2745 -12.2718 -12.2718 -12.2486 -12.2486 -12.2467 -12.2467
   -12.2214 -12.2214  -5.6029  -5.6029  -4.7478  -4.7478  -4.5020  -4.5020
    -0.7136  -0.7136   0.1115   0.1115   6.5003   6.5003   6.8124   6.8124
     7.4060   7.4060   7.4305   7.4305   7.5188   7.5188   7.8128   7.8128
     7.8223   7.8223   8.2363   8.2363   8.8270   8.8270   9.1782   9.1782
    10.4377  10.4377  10.6430  10.6430  11.6177  11.6177  12.3571  12.3571
    12.9095  12.9095  16.0065  16.0065  16.3004  16.3004

          k =-0.0080 0.0046 0.0012 (  3074 PWs)   bands (ev):

   -36.4430 -36.4430 -36.3571 -36.3571 -36.2558 -36.2558 -36.1161 -36.1161
   -36.0435 -36.0435 -35.9713 -35.9713 -35.3618 -35.3618 -35.2162 -35.2162
   -35.1359 -35.1359 -35.0212 -35.0212 -34.9476 -34.9476 -34.8481 -34.8481
   -34.7798 -34.7798 -34.7220 -34.7220 -34.5834 -34.5834 -15.1571 -15.1571
   -15.1251 -15.1251 -15.1059 -15.1059 -15.0802 -15.0802 -12.3392 -12.3392
   -12.2883 -12.2883 -12.2759 -12.2759 -12.2673 -12.2673 -12.2584 -12.2584
   -12.2359 -12.2359  -5.5944  -5.5944  -4.7416  -4.7416  -4.4965  -4.4965
    -0.7161  -0.7161   0.1014   0.1014   6.4614   6.4614   6.7485   6.7485
     7.3331   7.3331   7.4266   7.4266   7.5937   7.5937   7.7691   7.7691
     7.8540   7.8540   8.1478   8.1478   8.8693   8.8693   9.2177   9.2177
    10.4031  10.4031  10.7264  10.7264  11.6575  11.6575  12.3690  12.3690
    12.8667  12.8667  16.0020  16.0020  16.3643  16.3643

          k =-0.0161 0.0093 0.0023 (  3069 PWs)   bands (ev):

   -36.4132 -36.4132 -36.3357 -36.3357 -36.1045 -36.1045 -36.0198 -36.0198
   -35.8600 -35.8600 -35.7545 -35.7545 -35.2628 -35.2628 -35.2316 -35.2316
   -35.1519 -35.1519 -35.0496 -35.0496 -34.9667 -34.9667 -34.8561 -34.8561
   -34.7671 -34.7671 -34.6667 -34.6667 -34.5562 -34.5562 -15.1510 -15.1510
   -15.1394 -15.1394 -15.0887 -15.0887 -15.0642 -15.0642 -12.3247 -12.3247
   -12.3025 -12.3025 -12.2776 -12.2776 -12.2643 -12.2643 -12.2442 -12.2442
   -12.2247 -12.2247  -5.5689  -5.5689  -4.7234  -4.7234  -4.4801  -4.4801
    -0.7238  -0.7238   0.0714   0.0714   6.3591   6.3591   6.5931   6.5931
     7.1934   7.1934   7.4052   7.4052   7.5431   7.5431   7.7985   7.7985
     7.9374   7.9374   8.0384   8.0384   8.7928   8.7928   9.4225   9.4225
    10.3488  10.3488  10.9110  10.9110  11.7537  11.7537  12.4059  12.4059
    12.7686  12.7686  15.9432  15.9432  16.2847  16.2847

          k =-0.0241 0.0139 0.0035 (  3069 PWs)   bands (ev):

   -36.2926 -36.2926 -36.1839 -36.1839 -36.0758 -36.0758 -36.0033 -36.0033
   -35.8209 -35.8209 -35.7501 -35.7501 -35.4356 -35.4356 -35.3011 -35.3011
   -35.2078 -35.2078 -35.1441 -35.1441 -34.9807 -34.9807 -34.8553 -34.8553
   -34.8290 -34.8290 -34.6698 -34.6698 -34.5507 -34.5507 -15.1515 -15.1515
   -15.1303 -15.1303 -15.1025 -15.1025 -15.0632 -15.0632 -12.3156 -12.3156
   -12.3091 -12.3091 -12.2795 -12.2795 -12.2683 -12.2683 -12.2438 -12.2438
   -12.2271 -12.2271  -5.5268  -5.5268  -4.6936  -4.6936  -4.4533  -4.4533
    -0.7374  -0.7374   0.0218   0.0218   6.2190   6.2190   6.3968   6.3968
     6.9901   6.9901   7.2169   7.2169   7.5477   7.5477   7.7837   7.7837
     7.9811   7.9811   8.1260   8.1260   8.6118   8.6118   9.7042   9.7042
    10.2939  10.2939  11.1412  11.1412  11.8433  11.8433  12.4488  12.4488
    12.7050  12.7050  15.7373  15.7373  16.1250  16.1250

          k =-0.0322 0.0186 0.0047 (  3059 PWs)   bands (ev):

   -36.3124 -36.3124 -36.1761 -36.1761 -35.9252 -35.9252 -35.7973 -35.7973
   -35.7199 -35.7199 -35.5799 -35.5799 -35.3730 -35.3730 -35.2815 -35.2815
   -35.0940 -35.0940 -34.9717 -34.9717 -34.8947 -34.8947 -34.7901 -34.7901
   -34.6578 -34.6578 -34.6057 -34.6057 -34.3934 -34.3934 -15.1239 -15.1239
   -15.1113 -15.1113 -15.0999 -15.0999 -15.0642 -15.0642 -12.2975 -12.2975
   -12.2820 -12.2820 -12.2707 -12.2707 -12.2625 -12.2625 -12.2446 -12.2446
   -12.2290 -12.2290  -5.4685  -5.4685  -4.6533  -4.6533  -4.4169  -4.4169
    -0.7580  -0.7580  -0.0464  -0.0464   6.0533   6.0533   6.1896   6.1896
     6.7170   6.7170   7.0423   7.0423   7.5104   7.5104   7.7385   7.7385
     8.0263   8.0263   8.2547   8.2547   8.4370   8.4370   9.9713   9.9713
    10.2508  10.2508  11.3867  11.3867  11.8746  11.8746  12.4561  12.4561
    12.7874  12.7874  15.4366  15.4366  16.0868  16.0868

          k =-0.0402 0.0232 0.0058 (  3059 PWs)   bands (ev):

   -36.2371 -36.2371 -36.0981 -36.0981 -36.0352 -36.0352 -35.9172 -35.9172
   -35.6202 -35.6202 -35.5354 -35.5354 -35.3391 -35.3391 -35.2534 -35.2534
   -35.1442 -35.1442 -35.0279 -35.0279 -34.9918 -34.9918 -34.7770 -34.7770
   -34.7195 -34.7195 -34.5960 -34.5960 -34.4922 -34.4922 -15.1295 -15.1295
   -15.1130 -15.1130 -15.0928 -15.0928 -15.0728 -15.0728 -12.2928 -12.2928
   -12.2877 -12.2877 -12.2718 -12.2718 -12.2663 -12.2663 -12.2474 -12.2474
   -12.2323 -12.2323  -5.3949  -5.3949  -4.6039  -4.6039  -4.3721  -4.3721
    -0.7873  -0.7873  -0.1313  -0.1313   5.8414   5.8414   6.0060   6.0060
     6.4433   6.4433   6.8948   6.8948   7.3755   7.3755   7.7598   7.7598
     8.0057   8.0057   8.1909   8.1909   8.4816   8.4816  10.0825  10.0825
    10.3379  10.3379  11.6083  11.6083  11.8550  11.8550  12.4944  12.4944
    12.9583  12.9583  15.1422  15.1422  16.0845  16.0845

          k =-0.0483 0.0279 0.0070 (  3066 PWs)   bands (ev):

   -36.4109 -36.4109 -36.2510 -36.2510 -36.1482 -36.1482 -36.0144 -36.0144
   -35.7034 -35.7034 -35.5805 -35.5805 -35.4416 -35.4416 -35.3681 -35.3681
   -35.2761 -35.2761 -35.1394 -35.1394 -35.0706 -35.0706 -34.8897 -34.8897
   -34.7184 -34.7184 -34.6499 -34.6499 -34.4868 -34.4868 -15.1486 -15.1486
   -15.1286 -15.1286 -15.0953 -15.0953 -15.0788 -15.0788 -12.3078 -12.3078
   -12.3054 -12.3054 -12.2775 -12.2775 -12.2725 -12.2725 -12.2532 -12.2532
   -12.2338 -12.2338  -5.3071  -5.3071  -4.5472  -4.5472  -4.3204  -4.3204
    -0.8269  -0.8269  -0.2302  -0.2302   5.5726   5.5726   5.8653   5.8653
     6.2126   6.2126   6.7599   6.7599   7.2108   7.2108   7.7698   7.7698
     7.8621   7.8621   8.1618   8.1618   8.5741   8.5741  10.0426  10.0426
    10.5514  10.5514  11.7093  11.7093  11.8934  11.8934  12.6039  12.6039
    13.1418  13.1418  14.8731  14.8731  16.1272  16.1272

          k =-0.0563 0.0325 0.0081 (  3069 PWs)   bands (ev):

   -36.5165 -36.5165 -36.1903 -36.1903 -36.1370 -36.1370 -36.0450 -36.0450
   -35.8675 -35.8675 -35.6938 -35.6938 -35.5579 -35.5579 -35.3969 -35.3969
   -35.2477 -35.2477 -35.1396 -35.1396 -35.0832 -35.0832 -34.9745 -34.9745
   -34.8724 -34.8724 -34.6574 -34.6574 -34.4958 -34.4958 -15.1508 -15.1508
   -15.1341 -15.1341 -15.1027 -15.1027 -15.0865 -15.0865 -12.3191 -12.3191
   -12.3046 -12.3046 -12.2820 -12.2820 -12.2754 -12.2754 -12.2556 -12.2556
   -12.2408 -12.2408  -5.2064  -5.2064  -4.4854  -4.4854  -4.2640  -4.2640
    -0.8782  -0.8782  -0.3388  -0.3388   5.2774   5.2774   5.7555   5.7555
     6.0326   6.0326   6.6358   6.6358   7.0440   7.0440   7.6092   7.6092
     7.8414   7.8414   8.1425   8.1425   8.6233   8.6233  10.0000  10.0000
    10.7529  10.7529  11.6919  11.6919  12.0070  12.0070  12.7739  12.7739
    13.3069  13.3069  14.6448  14.6448  16.2143  16.2143

          k =-0.0644 0.0372 0.0093 (  3070 PWs)   bands (ev):

   -36.4082 -36.4082 -36.2313 -36.2313 -36.1439 -36.1439 -36.0826 -36.0826
   -35.8590 -35.8590 -35.6529 -35.6529 -35.4955 -35.4955 -35.4329 -35.4329
   -35.3065 -35.3065 -35.2405 -35.2405 -35.1343 -35.1343 -35.0468 -35.0468
   -34.9502 -34.9502 -34.7242 -34.7242 -34.4554 -34.4554 -15.1510 -15.1510
   -15.1331 -15.1331 -15.1143 -15.1143 -15.0852 -15.0852 -12.3183 -12.3183
   -12.3061 -12.3061 -12.2896 -12.2896 -12.2701 -12.2701 -12.2600 -12.2600
   -12.2457 -12.2457  -5.0949  -5.0949  -4.4216  -4.4216  -4.2054  -4.2054
    -0.9423  -0.9423  -0.4519  -0.4519   4.9828   4.9828   5.6699   5.6699
     5.8979   5.8979   6.5231   6.5231   6.8841   6.8841   7.4135   7.4135
     7.8442   7.8442   8.0945   8.0945   8.6368   8.6368   9.9734   9.9734
    10.9285  10.9285  11.6690  11.6690  12.1043  12.1043  12.9646  12.9646
    13.4468  13.4468  14.4541  14.4541  16.3296  16.3296

          k =-0.0724 0.0418 0.0105 (  3073 PWs)   bands (ev):

   -36.5860 -36.5860 -36.3356 -36.3356 -36.1482 -36.1482 -35.9589 -35.9589
   -35.8390 -35.8390 -35.7519 -35.7519 -35.6571 -35.6571 -35.4491 -35.4491
   -35.3118 -35.3118 -35.1508 -35.1508 -35.0942 -35.0942 -35.0266 -35.0266
   -34.9724 -34.9724 -34.7782 -34.7782 -34.7047 -34.7047 -15.1560 -15.1560
   -15.1340 -15.1340 -15.1212 -15.1212 -15.0911 -15.0911 -12.3243 -12.3243
   -12.3074 -12.3074 -12.2926 -12.2926 -12.2754 -12.2754 -12.2623 -12.2623
   -12.2502 -12.2502  -4.9752  -4.9752  -4.3580  -4.3580  -4.1483  -4.1483
    -1.0180  -1.0180  -0.5640  -0.5640   4.7069   4.7069   5.6046   5.6046
     5.8039   5.8039   6.4232   6.4232   6.7362   6.7362   7.2334   7.2334
     7.8059   7.8059   8.0323   8.0323   8.6370   8.6370   9.9547   9.9547
    11.0819  11.0819  11.6547  11.6547  12.1874  12.1874  13.1284  13.1284
    13.5699  13.5699  14.3061  14.3061  16.4040  16.4040

          k =-0.0805 0.0465 0.0116 (  3068 PWs)   bands (ev):

   -36.4726 -36.4726 -36.3167 -36.3167 -36.0869 -36.0869 -35.9223 -35.9223
   -35.8316 -35.8316 -35.7519 -35.7519 -35.5371 -35.5371 -35.4196 -35.4196
   -35.2994 -35.2994 -35.1386 -35.1386 -35.0211 -35.0211 -34.9361 -34.9361
   -34.8746 -34.8746 -34.7370 -34.7370 -34.6228 -34.6228 -15.1474 -15.1474
   -15.1235 -15.1235 -15.1115 -15.1115 -15.0945 -15.0945 -12.3180 -12.3180
   -12.2965 -12.2965 -12.2845 -12.2845 -12.2769 -12.2769 -12.2591 -12.2591
   -12.2461 -12.2461  -4.8508  -4.8508  -4.2980  -4.2980  -4.0967  -4.0967
    -1.1020  -1.1020  -0.6696  -0.6696   4.4606   4.4606   5.5543   5.5543
     5.7481   5.7481   6.3383   6.3383   6.6046   6.6046   7.0764   7.0764
     7.6980   7.6980   7.9958   7.9958   8.6388   8.6388   9.9340   9.9340
    11.2149  11.2149  11.6529  11.6529  12.2623  12.2623  13.2353  13.2353
    13.6863  13.6863  14.2010  14.2010  16.3341  16.3341

          k =-0.0885 0.0511 0.0128 (  3072 PWs)   bands (ev):

   -36.5638 -36.5638 -36.3110 -36.3110 -36.0980 -36.0980 -35.9978 -35.9978
   -35.9085 -35.9085 -35.8070 -35.8070 -35.6565 -35.6565 -35.5475 -35.5475
   -35.2413 -35.2413 -35.1745 -35.1745 -35.1174 -35.1174 -35.0415 -35.0415
   -34.9250 -34.9250 -34.7906 -34.7906 -34.5523 -34.5523 -15.1576 -15.1576
   -15.1362 -15.1362 -15.1077 -15.1077 -15.0985 -15.0985 -12.3199 -12.3199
   -12.3049 -12.3049 -12.2982 -12.2982 -12.2827 -12.2827 -12.2563 -12.2563
   -12.2477 -12.2477  -4.7265  -4.7265  -4.2444  -4.2444  -4.0558  -4.0558
    -1.1867  -1.1867  -0.7649  -0.7649   4.2504   4.2504   5.5161   5.5161
     5.7241   5.7241   6.2696   6.2696   6.4917   6.4917   6.9456   6.9456
     7.5433   7.5433   7.9834   7.9834   8.6445   8.6445   9.9068   9.9068
    11.3159  11.3159  11.6728  11.6728  12.3285  12.3285  13.2826  13.2826
    13.7887  13.7887  14.1308  14.1308  16.1857  16.1857

          k =-0.0965 0.0557 0.0140 (  3073 PWs)   bands (ev):

   -36.5305 -36.5305 -36.3220 -36.3220 -36.2050 -36.2050 -36.0993 -36.0993
   -35.8891 -35.8891 -35.8486 -35.8486 -35.6166 -35.6166 -35.4828 -35.4828
   -35.3179 -35.3179 -35.2425 -35.2425 -35.1343 -35.1343 -34.9828 -34.9828
   -34.9064 -34.9064 -34.7684 -34.7684 -34.6410 -34.6410 -15.1635 -15.1635
   -15.1424 -15.1424 -15.1085 -15.1085 -15.0940 -15.0940 -12.3303 -12.3303
   -12.3137 -12.3137 -12.2945 -12.2945 -12.2831 -12.2831 -12.2566 -12.2566
   -12.2409 -12.2409  -4.6087  -4.6087  -4.1991  -4.1991  -4.0299  -4.0299
    -1.2640  -1.2640  -0.8463  -0.8463   4.0823   4.0823   5.4899   5.4899
     5.7223   5.7223   6.2185   6.2185   6.4012   6.4012   6.8452   6.8452
     7.3804   7.3804   7.9791   7.9791   8.6520   8.6520   9.8756   9.8756
    11.3706  11.3706  11.7254  11.7254  12.3840  12.3840  13.2886  13.2886
    13.8642  13.8642  14.0849  14.0849  16.0430  16.0430

          k =-0.1046 0.0604 0.0151 (  3078 PWs)   bands (ev):

   -36.5922 -36.5922 -36.3157 -36.3157 -36.1844 -36.1844 -36.1156 -36.1156
   -36.0049 -36.0049 -35.8298 -35.8298 -35.7522 -35.7522 -35.5066 -35.5066
   -35.3710 -35.3710 -35.3450 -35.3450 -35.1862 -35.1862 -35.1076 -35.1076
   -35.0018 -35.0018 -34.8387 -34.8387 -34.7631 -34.7631 -15.1717 -15.1717
   -15.1523 -15.1523 -15.1110 -15.1110 -15.1028 -15.1028 -12.3376 -12.3376
   -12.3174 -12.3174 -12.3046 -12.3046 -12.2911 -12.2911 -12.2533 -12.2533
   -12.2502 -12.2502  -4.5067  -4.5067  -4.1645  -4.1645  -4.0204  -4.0204
    -1.3250  -1.3250  -0.9102  -0.9102   3.9596   3.9596   5.4747   5.4747
     5.7307   5.7307   6.1846   6.1846   6.3364   6.3364   6.7763   6.7763
     7.2362   7.2362   7.9769   7.9769   8.6600   8.6600   9.8487   9.8487
    11.3889  11.3889  11.7933  11.7933  12.4289  12.4289  13.2726  13.2726
    13.9112  13.9112  14.0568  14.0568  15.9339  15.9339

          k =-0.1126 0.0650 0.0163 (  3077 PWs)   bands (ev):

   -36.4921 -36.4921 -36.3785 -36.3785 -36.2214 -36.2214 -36.1002 -36.1002
   -35.9726 -35.9726 -35.8248 -35.8248 -35.7233 -35.7233 -35.5264 -35.5264
   -35.4482 -35.4482 -35.3601 -35.3601 -35.2389 -35.2389 -35.0800 -35.0800
   -34.9677 -34.9677 -34.7524 -34.7524 -34.7027 -34.7027 -15.1706 -15.1706
   -15.1587 -15.1587 -15.1083 -15.1083 -15.0960 -15.0960 -12.3371 -12.3371
   -12.3237 -12.3237 -12.3003 -12.3003 -12.2899 -12.2899 -12.2523 -12.2523
   -12.2459 -12.2459  -4.4339  -4.4339  -4.1410  -4.1410  -4.0234  -4.0234
    -1.3635  -1.3635  -0.9505  -0.9505   3.8853   3.8853   5.4674   5.4674
     5.7392   5.7392   6.1659   6.1659   6.2988   6.2988   6.7387   6.7387
     7.1346   7.1346   7.9762   7.9762   8.6656   8.6656   9.8297   9.8297
    11.3912  11.3912  11.8468  11.8468  12.4598  12.4598  13.2522  13.2522
    13.9380  13.9380  14.0344  14.0344  15.8680  15.8680

          k =-0.1207 0.0697 0.0175 (  3082 PWs)   bands (ev):

   -36.6243 -36.6243 -36.5667 -36.5667 -36.2640 -36.2640 -36.1860 -36.1860
   -36.0603 -36.0603 -35.8228 -35.8228 -35.8202 -35.8202 -35.6823 -35.6823
   -35.4862 -35.4862 -35.4099 -35.4099 -35.2218 -35.2218 -35.0671 -35.0671
   -34.9250 -34.9250 -34.8758 -34.8758 -34.7087 -34.7087 -15.1849 -15.1849
   -15.1640 -15.1640 -15.1110 -15.1110 -15.1023 -15.1023 -12.3465 -12.3465
   -12.3342 -12.3342 -12.3051 -12.3051 -12.2906 -12.2906 -12.2574 -12.2574
   -12.2505 -12.2505  -4.4069  -4.4069  -4.1325  -4.1325  -4.0278  -4.0278
    -1.3770  -1.3770  -0.9646  -0.9646   3.8602   3.8602   5.4654   5.4654
     5.7424   5.7424   6.1600   6.1600   6.2868   6.2868   6.7276   6.7276
     7.0961   7.0961   7.9758   7.9758   8.6674   8.6674   9.8229   9.8229
    11.3905  11.3905  11.8665  11.8665  12.4707  12.4707  13.2428  13.2428
    13.9479  13.9479  14.0312  14.0312  15.8474  15.8474

          k =-0.1126 0.0650 0.0198 (  3079 PWs)   bands (ev):

   -36.5051 -36.5051 -36.3616 -36.3616 -36.2520 -36.2520 -36.1764 -36.1764
   -35.9783 -35.9783 -35.8162 -35.8162 -35.7023 -35.7023 -35.5081 -35.5081
   -35.4816 -35.4816 -35.3716 -35.3716 -35.2146 -35.2146 -35.1354 -35.1354
   -35.0133 -35.0133 -34.8969 -34.8969 -34.7419 -34.7419 -15.1699 -15.1699
   -15.1577 -15.1577 -15.1141 -15.1141 -15.1039 -15.1039 -12.3411 -12.3411
   -12.3214 -12.3214 -12.2960 -12.2960 -12.2940 -12.2940 -12.2599 -12.2599
   -12.2517 -12.2517  -4.4325  -4.4325  -4.1453  -4.1453  -4.0211  -4.0211
    -1.3607  -1.3607  -0.9536  -0.9536   3.8937   3.8937   5.4682   5.4682
     5.7108   5.7108   6.1684   6.1684   6.2824   6.2824   6.7360   6.7360
     7.1789   7.1789   7.9802   7.9802   8.6716   8.6716   9.8199   9.8199
    11.3777  11.3777  11.8392  11.8392  12.4326  12.4326  13.2774  13.2774
    13.9544  13.9544  14.0459  14.0459  15.8550  15.8550

          k =-0.1046 0.0604 0.0221 (  3084 PWs)   bands (ev):

   -36.6018 -36.6018 -36.4124 -36.4124 -36.2872 -36.2872 -36.1678 -36.1678
   -36.0222 -36.0222 -35.9222 -35.9222 -35.7773 -35.7773 -35.5338 -35.5338
   -35.4913 -35.4913 -35.3744 -35.3744 -35.2949 -35.2949 -35.2188 -35.2188
   -35.1098 -35.1098 -34.9108 -34.9108 -34.8565 -34.8565 -15.1741 -15.1741
   -15.1601 -15.1601 -15.1292 -15.1292 -15.1080 -15.1080 -12.3401 -12.3401
   -12.3222 -12.3222 -12.3086 -12.3086 -12.2992 -12.2992 -12.2707 -12.2707
   -12.2551 -12.2551  -4.5008  -4.5008  -4.1823  -4.1823  -4.0090  -4.0090
    -1.3153  -1.3153  -0.9206  -0.9206   3.9921   3.9921   5.4624   5.4624
     5.6491   5.6491   6.1925   6.1925   6.2933   6.2933   6.7638   6.7638
     7.3767   7.3767   7.9941   7.9941   8.6844   8.6844   9.8081   9.8081
    11.3313  11.3313  11.7723  11.7723  12.3570  12.3570  13.3391  13.3391
    13.9691  13.9691  14.0905  14.0905  15.8779  15.8779

          k =-0.0965 0.0557 0.0244 (  3075 PWs)   bands (ev):

   -36.5622 -36.5622 -36.3685 -36.3685 -36.1718 -36.1718 -36.1262 -36.1262
   -35.9364 -35.9364 -35.8357 -35.8357 -35.5920 -35.5920 -35.4876 -35.4876
   -35.3651 -35.3651 -35.1888 -35.1888 -35.1256 -35.1256 -35.0573 -35.0573
   -34.9871 -34.9871 -34.8255 -34.8255 -34.7152 -34.7152 -15.1631 -15.1631
   -15.1478 -15.1478 -15.1068 -15.1068 -15.1021 -15.1021 -12.3301 -12.3301
   -12.3127 -12.3127 -12.2986 -12.2986 -12.2856 -12.2856 -12.2559 -12.2559
   -12.2499 -12.2499  -4.5959  -4.5959  -4.2408  -4.2408  -4.0014  -4.0014
    -1.2481  -1.2481  -0.8640  -0.8640   4.1490   4.1490   5.4127   5.4127
     5.6381   5.6381   6.2324   6.2324   6.3385   6.3385   6.8117   6.8117
     7.6109   7.6109   8.0239   8.0239   8.7085   8.7085   9.7806   9.7806
    11.2436  11.2436  11.7077  11.7077  12.2872  12.2872  13.3767  13.3767
    13.9711  13.9711  14.1608  14.1608  15.9191  15.9191

          k =-0.0885 0.0511 0.0268 (  3065 PWs)   bands (ev):

   -36.3871 -36.3871 -36.1357 -36.1357 -35.9789 -35.9789 -35.9239 -35.9239
   -35.8293 -35.8293 -35.7577 -35.7577 -35.5167 -35.5167 -35.3461 -35.3461
   -35.2325 -35.2325 -35.1614 -35.1614 -35.0538 -35.0538 -34.9474 -34.9474
   -34.9075 -34.9075 -34.7907 -34.7907 -34.6034 -34.6034 -15.1451 -15.1451
   -15.1218 -15.1218 -15.1029 -15.1029 -15.0937 -15.0937 -12.3133 -12.3133
   -12.2962 -12.2962 -12.2815 -12.2815 -12.2776 -12.2776 -12.2536 -12.2536
   -12.2430 -12.2430  -4.7052  -4.7052  -4.3173  -4.3173  -4.0027  -4.0027
    -1.1709  -1.1709  -0.7844  -0.7844   4.3515   4.3515   5.3528   5.3528
     5.6861   5.6861   6.2904   6.2904   6.4147   6.4147   6.8792   6.8792
     7.8075   7.8075   8.0833   8.0833   8.7496   8.7496   9.7319   9.7319
    11.1402  11.1402  11.6670  11.6670  12.2314  12.2314  13.3738  13.3738
    13.9235  13.9235  14.2506  14.2506  15.9800  15.9800

          k =-0.0805 0.0465 0.0291 (  3071 PWs)   bands (ev):

   -36.4629 -36.4629 -36.2231 -36.2231 -36.0584 -36.0584 -35.9694 -35.9694
   -35.8881 -35.8881 -35.7693 -35.7693 -35.6318 -35.6318 -35.4611 -35.4611
   -35.3544 -35.3544 -35.2753 -35.2753 -35.1389 -35.1389 -34.9982 -34.9982
   -34.8914 -34.8914 -34.8252 -34.8252 -34.6309 -34.6309 -15.1612 -15.1612
   -15.1229 -15.1229 -15.1079 -15.1079 -15.1053 -15.1053 -12.3274 -12.3274
   -12.3023 -12.3023 -12.2847 -12.2847 -12.2760 -12.2760 -12.2625 -12.2625
   -12.2536 -12.2536  -4.8204  -4.8204  -4.4075  -4.4075  -4.0139  -4.0139
    -1.0963  -1.0963  -0.6818  -0.6818   4.5782   4.5782   5.3443   5.3443
     5.7647   5.7647   6.3668   6.3668   6.5161   6.5161   6.9661   6.9661
     7.9144   7.9144   8.1693   8.1693   8.8093   8.8093   9.6659   9.6659
    11.0654  11.0654  11.6335  11.6335  12.1862  12.1862  13.3272  13.3272
    13.7999  13.7999  14.3667  14.3667  16.0570  16.0570

          k =-0.0724 0.0418 0.0314 (  3066 PWs)   bands (ev):

   -36.3592 -36.3592 -36.2590 -36.2590 -36.1727 -36.1727 -35.8968 -35.8968
   -35.8199 -35.8199 -35.6439 -35.6439 -35.5155 -35.5155 -35.3835 -35.3835
   -35.2934 -35.2934 -35.2435 -35.2435 -35.0667 -35.0667 -34.9496 -34.9496
   -34.8579 -34.8579 -34.7602 -34.7602 -34.4621 -34.4621 -15.1487 -15.1487
   -15.1210 -15.1210 -15.1114 -15.1114 -15.0884 -15.0884 -12.3183 -12.3183
   -12.2948 -12.2948 -12.2843 -12.2843 -12.2720 -12.2720 -12.2598 -12.2598
   -12.2435 -12.2435  -4.9350  -4.9350  -4.5059  -4.5059  -4.0326  -4.0326
    -1.0333  -1.0333  -0.5595  -0.5595   4.7992   4.7992   5.4274   5.4274
     5.8639   5.8639   6.4616   6.4616   6.6387   6.6387   7.0744   7.0744
     7.9636   7.9636   8.2173   8.2173   8.8690   8.8690   9.6165   9.6165
    11.0396  11.0396  11.5939  11.5939  12.1567  12.1567  13.2296  13.2296
    13.6124  13.6124  14.5110  14.5110  16.1496  16.1496

          k =-0.0644 0.0372 0.0338 (  3074 PWs)   bands (ev):

   -36.4835 -36.4835 -36.3109 -36.3109 -36.2727 -36.2727 -36.1566 -36.1566
   -35.8693 -35.8693 -35.7959 -35.7959 -35.5995 -35.5995 -35.4471 -35.4471
   -35.3480 -35.3480 -35.2616 -35.2616 -35.0855 -35.0855 -35.0577 -35.0577
   -34.9490 -34.9490 -34.7761 -34.7761 -34.5501 -34.5501 -15.1532 -15.1532
   -15.1354 -15.1354 -15.1267 -15.1267 -15.0943 -15.0943 -12.3167 -12.3167
   -12.3072 -12.3072 -12.2918 -12.2918 -12.2868 -12.2868 -12.2697 -12.2697
   -12.2498 -12.2498  -5.0447  -5.0447  -4.6073  -4.6073  -4.0560  -4.0560
    -0.9858  -0.9858  -0.4245  -0.4245   4.9972   4.9972   5.6091   5.6091
     5.9818   5.9818   6.5735   6.5735   6.7772   6.7772   7.2083   7.2083
     7.9877   7.9877   8.1924   8.1924   8.8935   8.8935   9.6133   9.6133
    11.0380  11.0380  11.5400  11.5400  12.1470  12.1470  13.0521  13.0521
    13.4149  13.4149  14.6760  14.6760  16.2489  16.2489

          k =-0.0563 0.0325 0.0361 (  3072 PWs)   bands (ev):

   -36.4699 -36.4699 -36.3507 -36.3507 -36.2606 -36.2606 -36.1263 -36.1263
   -35.8600 -35.8600 -35.7976 -35.7976 -35.5877 -35.5877 -35.4399 -35.4399
   -35.3752 -35.3752 -35.1824 -35.1824 -35.0054 -35.0054 -34.8974 -34.8974
   -34.8408 -34.8408 -34.7743 -34.7743 -34.5235 -34.5235 -15.1567 -15.1567
   -15.1428 -15.1428 -15.1080 -15.1080 -15.0861 -15.0861 -12.3240 -12.3240
   -12.3023 -12.3023 -12.2909 -12.2909 -12.2785 -12.2785 -12.2620 -12.2620
   -12.2445 -12.2445  -5.1464  -5.1464  -4.7072  -4.7072  -4.0819  -4.0819
    -0.9539  -0.9539  -0.2847  -0.2847   5.1946   5.1946   5.8379   5.8379
     6.1263   6.1263   6.7011   6.7011   6.9240   6.9240   7.3749   7.3749
     7.9860   7.9860   8.1228   8.1228   8.8822   8.8822   9.6440   9.6440
    11.0004  11.0004  11.4913  11.4913  12.1485  12.1485  12.8021  12.8021
    13.2555  13.2555  14.8746  14.8746  16.3549  16.3549

          k =-0.0483 0.0279 0.0384 (  3081 PWs)   bands (ev):

   -36.5228 -36.5228 -36.4353 -36.4353 -36.3186 -36.3186 -36.1793 -36.1793
   -35.9460 -35.9460 -35.8504 -35.8504 -35.6108 -35.6108 -35.5046 -35.5046
   -35.4143 -35.4143 -35.3608 -35.3608 -35.1585 -35.1585 -35.1004 -35.1004
   -34.9431 -34.9431 -34.8123 -34.8123 -34.6487 -34.6487 -15.1651 -15.1651
   -15.1508 -15.1508 -15.1164 -15.1164 -15.1025 -15.1025 -12.3275 -12.3275
   -12.3070 -12.3070 -12.3029 -12.3029 -12.2817 -12.2817 -12.2768 -12.2768
   -12.2562 -12.2562  -5.2378  -5.2378  -4.8016  -4.8016  -4.1082  -4.1082
    -0.9365  -0.9365  -0.1475  -0.1475   5.4223   5.4223   6.0324   6.0324
     6.3155   6.3155   6.8412   6.8412   7.0673   7.0673   7.5669   7.5669
     7.9414   7.9414   8.0782   8.0782   8.8519   8.8519   9.6738   9.6738
    10.8699  10.8699  11.4590  11.4590  12.1059  12.1059  12.5951  12.5951
    13.1168  13.1168  15.0978  15.0978  16.4593  16.4593

          k =-0.0402 0.0232 0.0407 (  3081 PWs)   bands (ev):

   -36.5932 -36.5932 -36.4055 -36.4055 -36.2930 -36.2930 -36.0767 -36.0767
   -35.8753 -35.8753 -35.7624 -35.7624 -35.6178 -35.6178 -35.5441 -35.5441
   -35.4469 -35.4469 -35.2968 -35.2968 -35.2009 -35.2009 -35.0602 -35.0602
   -34.9502 -34.9502 -34.8334 -34.8334 -34.5383 -34.5383 -15.1761 -15.1761
   -15.1405 -15.1405 -15.1096 -15.1096 -15.0973 -15.0973 -12.3367 -12.3367
   -12.3051 -12.3051 -12.2957 -12.2957 -12.2806 -12.2806 -12.2675 -12.2675
   -12.2515 -12.2515  -5.3170  -5.3170  -4.8870  -4.8870  -4.1329  -4.1329
    -0.9308  -0.9308  -0.0187  -0.0187   5.6926   5.6926   6.1628   6.1628
     6.5367   6.5367   6.9869   6.9869   7.1994   7.1994   7.6708   7.6708
     7.9973   7.9973   8.0651   8.0651   8.8062   8.8062   9.6881   9.6881
    10.6468  10.6468  11.4181  11.4181  11.9495  11.9495  12.5527  12.5527
    12.9806  12.9806  15.3452  15.3452  16.5258  16.5258

          k =-0.0322 0.0186 0.0431 (  3071 PWs)   bands (ev):

   -36.5150 -36.5150 -36.2971 -36.2971 -36.1321 -36.1321 -35.9051 -35.9051
   -35.7225 -35.7225 -35.6078 -35.6078 -35.5422 -35.5422 -35.4172 -35.4172
   -35.2643 -35.2643 -35.1575 -35.1575 -35.0364 -35.0364 -34.8936 -34.8936
   -34.7463 -34.7463 -34.6610 -34.6610 -34.6000 -34.6000 -15.1464 -15.1464
   -15.1200 -15.1200 -15.1016 -15.1016 -15.0904 -15.0904 -12.3055 -12.3055
   -12.2931 -12.2931 -12.2815 -12.2815 -12.2764 -12.2764 -12.2535 -12.2535
   -12.2487 -12.2487  -5.3829  -5.3829  -4.9604  -4.9604  -4.1547  -4.1547
    -0.9331  -0.9331   0.0963   0.0963   5.9988   5.9988   6.2512   6.2512
     6.7474   6.7474   7.1244   7.1244   7.3204   7.3204   7.6407   7.6407
     8.0342   8.0342   8.2502   8.2502   8.7432   8.7432   9.6806   9.6806
    10.3747  10.3747  11.3374  11.3374  11.7831  11.7831  12.5900  12.5900
    12.8402  12.8402  15.6224  15.6224  16.4278  16.4278

          k =-0.0241 0.0139 0.0454 (  3074 PWs)   bands (ev):

   -36.4019 -36.4019 -36.2451 -36.2451 -36.1175 -36.1175 -36.0132 -36.0132
   -35.9463 -35.9463 -35.7879 -35.7879 -35.5117 -35.5117 -35.3603 -35.3603
   -35.3169 -35.3169 -35.1391 -35.1391 -35.0096 -35.0096 -34.9527 -34.9527
   -34.7821 -34.7821 -34.7125 -34.7125 -34.6761 -34.6761 -15.1392 -15.1392
   -15.1232 -15.1232 -15.1140 -15.1140 -15.0978 -15.0978 -12.3054 -12.3054
   -12.2933 -12.2933 -12.2828 -12.2828 -12.2750 -12.2750 -12.2693 -12.2693
   -12.2520 -12.2520  -5.4348  -5.4348  -5.0199  -5.0199  -4.1727  -4.1727
    -0.9397  -0.9397   0.1922   0.1922   6.2347   6.2347   6.4045   6.4045
     6.9199   6.9199   7.2431   7.2431   7.4265   7.4265   7.6412   7.6412
     7.9972   7.9972   8.4472   8.4472   8.6947   8.6947   9.6294   9.6294
    10.1519  10.1519  11.2152  11.2152  11.6933  11.6933  12.5808  12.5808
    12.7197  12.7197  15.8781  15.8781  16.3284  16.3284

          k =-0.0161 0.0093 0.0477 (  3075 PWs)   bands (ev):

   -36.3932 -36.3932 -36.1647 -36.1647 -36.0711 -36.0711 -36.0250 -36.0250
   -35.9486 -35.9486 -35.9177 -35.9177 -35.4980 -35.4980 -35.3973 -35.3973
   -35.3436 -35.3436 -35.2612 -35.2612 -35.0445 -35.0445 -34.8840 -34.8840
   -34.7697 -34.7697 -34.7363 -34.7363 -34.6531 -34.6531 -15.1347 -15.1347
   -15.1221 -15.1221 -15.1161 -15.1161 -15.1061 -15.1061 -12.2982 -12.2982
   -12.2922 -12.2922 -12.2850 -12.2850 -12.2760 -12.2760 -12.2712 -12.2712
   -12.2612 -12.2612  -5.4722  -5.4722  -5.0636  -5.0636  -4.1861  -4.1861
    -0.9473  -0.9473   0.2645   0.2645   6.2710   6.2710   6.7398   6.7398
     7.0342   7.0342   7.3608   7.3608   7.4930   7.4930   7.7139   7.7139
     7.9486   7.9486   8.4020   8.4020   8.7141   8.7141   9.5373   9.5373
    10.0962  10.0962  11.0802  11.0802  11.6875  11.6875  12.4264  12.4264
    12.6925  12.6925  16.0081  16.0081  16.3842  16.3842

          k =-0.0080 0.0046 0.0501 (  3059 PWs)   bands (ev):

   -36.2082 -36.2082 -36.0450 -36.0450 -35.9351 -35.9351 -35.8270 -35.8270
   -35.7475 -35.7475 -35.6666 -35.6666 -35.3166 -35.3166 -35.2708 -35.2708
   -35.1382 -35.1382 -35.0472 -35.0472 -34.8583 -34.8583 -34.7101 -34.7101
   -34.6302 -34.6302 -34.5003 -34.5003 -34.4520 -34.4520 -15.1129 -15.1129
   -15.1038 -15.1038 -15.0910 -15.0910 -15.0842 -15.0842 -12.2764 -12.2764
   -12.2747 -12.2747 -12.2666 -12.2666 -12.2637 -12.2637 -12.2511 -12.2511
   -12.2453 -12.2453  -5.4947  -5.4947  -5.0903  -5.0903  -4.1943  -4.1943
    -0.9530  -0.9530   0.3097   0.3097   6.2729   6.2729   7.0439   7.0439
     7.1037   7.1037   7.4803   7.4803   7.5164   7.5164   7.8000   7.8000
     7.9242   7.9242   8.2358   8.2358   8.6385   8.6385   9.5072   9.5072
    10.1604  10.1604  10.9665  10.9665  11.7517  11.7517  12.2267  12.2267
    12.6884  12.6884  15.9972  15.9972  16.6222  16.6222

          k = 0.0000 0.0000 0.0524 (  3058 PWs)   bands (ev):

   -36.2407 -36.2407 -36.0278 -36.0278 -35.8970 -35.8970 -35.7507 -35.7507
   -35.6836 -35.6836 -35.6644 -35.6644 -35.4613 -35.4613 -35.1628 -35.1628
   -35.1220 -35.1220 -35.0457 -35.0457 -34.8437 -34.8437 -34.8108 -34.8108
   -34.5628 -34.5628 -34.4719 -34.4719 -34.4698 -34.4698 -15.1092 -15.1092
   -15.1022 -15.1022 -15.0904 -15.0904 -15.0864 -15.0864 -12.2802 -12.2802
   -12.2736 -12.2736 -12.2638 -12.2638 -12.2636 -12.2636 -12.2512 -12.2512
   -12.2404 -12.2404  -5.5022  -5.5022  -5.0992  -5.0992  -4.1970  -4.1970
    -0.9550  -0.9550   0.3251   0.3251   6.2714   6.2714   7.0932   7.0932
     7.2251   7.2251   7.4929   7.4929   7.5547   7.5547   7.8385   7.8385
     7.9404   7.9404   8.1129   8.1129   8.5753   8.5753   9.5102   9.5102
    10.2074  10.2074  10.9166  10.9166  11.8165  11.8165  12.1085  12.1085
    12.6863  12.6863  15.9822  15.9822  16.8020  16.8020

          k = 0.0000 0.0000 0.0489 (  3057 PWs)   bands (ev):

   -36.1985 -36.1985 -36.0272 -36.0272 -35.8760 -35.8760 -35.7502 -35.7502
   -35.6816 -35.6816 -35.6638 -35.6638 -35.3714 -35.3714 -35.1447 -35.1447
   -35.1172 -35.1172 -35.0451 -35.0451 -34.8428 -34.8428 -34.8101 -34.8101
   -34.5618 -34.5618 -34.4710 -34.4710 -34.4685 -34.4685 -15.1090 -15.1090
   -15.1021 -15.1021 -15.0863 -15.0863 -15.0846 -15.0846 -12.2801 -12.2801
   -12.2734 -12.2734 -12.2637 -12.2637 -12.2570 -12.2570 -12.2510 -12.2510
   -12.2403 -12.2403  -5.5038  -5.5038  -5.0960  -5.0960  -4.1993  -4.1993
    -0.9528  -0.9528   0.3231   0.3231   6.2732   6.2732   7.0913   7.0913
     7.2240   7.2240   7.4932   7.4932   7.5586   7.5586   7.8351   7.8351
     7.9382   7.9382   8.1151   8.1151   8.5784   8.5784   9.5061   9.5061
    10.2108  10.2108  10.9133  10.9133  11.8139  11.8139  12.1117  12.1117
    12.6892  12.6892  15.9849  15.9849  16.7231  16.7231

          k = 0.0000 0.0000 0.0454 (  3066 PWs)   bands (ev):

   -36.2268 -36.2268 -36.1682 -36.1682 -36.0553 -36.0553 -35.8390 -35.8390
   -35.7731 -35.7731 -35.7080 -35.7080 -35.4697 -35.4697 -35.3532 -35.3532
   -35.1504 -35.1504 -35.1384 -35.1384 -34.9039 -34.9039 -34.8714 -34.8714
   -34.6673 -34.6673 -34.6538 -34.6538 -34.5573 -34.5573 -15.1248 -15.1248
   -15.1140 -15.1140 -15.1035 -15.1035 -15.0874 -15.0874 -12.2915 -12.2915
   -12.2826 -12.2826 -12.2709 -12.2709 -12.2696 -12.2696 -12.2569 -12.2569
   -12.2517 -12.2517  -5.5084  -5.5084  -5.0865  -5.0865  -4.2060  -4.2060
    -0.9462  -0.9462   0.3174   0.3174   6.2785   6.2785   7.0851   7.0851
     7.2214   7.2214   7.4938   7.4938   7.5693   7.5693   7.8242   7.8242
     7.9315   7.9315   8.1212   8.1212   8.5874   8.5874   9.4935   9.4935
    10.2202  10.2202  10.9030  10.9030  11.8058  11.8058  12.1202  12.1202
    12.6963  12.6963  15.9842  15.9842  16.6378  16.6378

          k = 0.0000 0.0000 0.0419 (  3072 PWs)   bands (ev):

   -36.4846 -36.4846 -36.2218 -36.2218 -36.2064 -36.2064 -35.8979 -35.8979
   -35.7916 -35.7916 -35.7724 -35.7724 -35.4705 -35.4705 -35.4678 -35.4678
   -35.2772 -35.2772 -35.1723 -35.1723 -34.9686 -34.9686 -34.9002 -34.9002
   -34.6995 -34.6995 -34.6588 -34.6588 -34.6122 -34.6122 -15.1261 -15.1261
   -15.1230 -15.1230 -15.1220 -15.1220 -15.0913 -15.0913 -12.2933 -12.2933
   -12.2853 -12.2853 -12.2814 -12.2814 -12.2797 -12.2797 -12.2700 -12.2700
   -12.2540 -12.2540  -5.5155  -5.5155  -5.0713  -5.0713  -4.2171  -4.2171
    -0.9352  -0.9352   0.3079   0.3079   6.2873   6.2873   7.0744   7.0744
     7.2193   7.2193   7.4950   7.4950   7.5861   7.5861   7.8079   7.8079
     7.9220   7.9220   8.1303   8.1303   8.6016   8.6016   9.4740   9.4740
    10.2355  10.2355  10.8875  10.8875  11.7940  11.7940  12.1349  12.1349
    12.7098  12.7098  15.9808  15.9808  16.5631  16.5631

          k = 0.0000 0.0000 0.0384 (  3057 PWs)   bands (ev):

   -36.2849 -36.2849 -36.1123 -36.1123 -36.0146 -36.0146 -35.8341 -35.8341
   -35.6613 -35.6613 -35.5479 -35.5479 -35.4050 -35.4050 -35.2159 -35.2159
   -35.1257 -35.1257 -34.8688 -34.8688 -34.7915 -34.7915 -34.7481 -34.7481
   -34.5880 -34.5880 -34.4150 -34.4150 -34.3799 -34.3799 -15.1184 -15.1184
   -15.0942 -15.0942 -15.0900 -15.0900 -15.0763 -15.0763 -12.2803 -12.2803
   -12.2748 -12.2748 -12.2657 -12.2657 -12.2537 -12.2537 -12.2524 -12.2524
   -12.2349 -12.2349  -5.5245  -5.5245  -5.0510  -5.0510  -4.2322  -4.2322
    -0.9202  -0.9202   0.2950   0.2950   6.2995   6.2995   7.0590   7.0590
     7.2199   7.2199   7.4967   7.4967   7.6074   7.6074   7.7876   7.7876
     7.9116   7.9116   8.1419   8.1419   8.6207   8.6207   9.4495   9.4495
    10.2552  10.2552  10.8687  10.8687  11.7808  11.7808  12.1549  12.1549
    12.7277  12.7277  15.9891  15.9891  16.4992  16.4992

          k = 0.0000 0.0000 0.0349 (  3051 PWs)   bands (ev):

   -36.1434 -36.1434 -36.0480 -36.0480 -35.8721 -35.8721 -35.7539 -35.7539
   -35.6390 -35.6390 -35.5310 -35.5310 -35.3911 -35.3911 -35.1034 -35.1034
   -35.0102 -35.0102 -34.7512 -34.7512 -34.7429 -34.7429 -34.6684 -34.6684
   -34.5831 -34.5831 -34.3796 -34.3796 -34.3458 -34.3458 -15.1067 -15.1067
   -15.0932 -15.0932 -15.0754 -15.0754 -15.0716 -15.0716 -12.2690 -12.2690
   -12.2680 -12.2680 -12.2646 -12.2646 -12.2455 -12.2455 -12.2412 -12.2412
   -12.2354 -12.2354  -5.5345  -5.5345  -5.0265  -5.0265  -4.2513  -4.2513
    -0.9018  -0.9018   0.2791   0.2791   6.3147   6.3147   7.0386   7.0386
     7.2236   7.2236   7.4987   7.4987   7.6309   7.6309   7.7629   7.7629
     7.8991   7.8991   8.1553   8.1553   8.6429   8.6429   9.4202   9.4202
    10.2775  10.2775  10.8447  10.8447  11.7631  11.7631  12.1777  12.1777
    12.7485  12.7485  15.9896  15.9896  16.4386  16.4386

          k = 0.0000 0.0000 0.0314 (  3060 PWs)   bands (ev):

   -36.3126 -36.3126 -36.2404 -36.2404 -36.0448 -36.0448 -35.8027 -35.8027
   -35.7201 -35.7201 -35.6274 -35.6274 -35.5070 -35.5070 -35.2361 -35.2361
   -35.1618 -35.1618 -34.8841 -34.8841 -34.8171 -34.8171 -34.6964 -34.6964
   -34.6413 -34.6413 -34.4377 -34.4377 -34.3735 -34.3735 -15.1311 -15.1311
   -15.1043 -15.1043 -15.0809 -15.0809 -15.0791 -15.0791 -12.2897 -12.2897
   -12.2868 -12.2868 -12.2696 -12.2696 -12.2487 -12.2487 -12.2477 -12.2477
   -12.2391 -12.2391  -5.5451  -5.5451  -4.9987  -4.9987  -4.2739  -4.2739
    -0.8806  -0.8806   0.2606   0.2606   6.3325   6.3325   7.0140   7.0140
     7.2305   7.2305   7.5009   7.5009   7.6529   7.6529   7.7371   7.7371
     7.8860   7.8860   8.1674   8.1674   8.6663   8.6663   9.3878   9.3878
    10.3009  10.3009  10.8172  10.8172  11.7426  11.7426  12.2022  12.2022
    12.7706  12.7706  15.9894  15.9894  16.3840  16.3840

          k = 0.0000 0.0000 0.0279 (  3063 PWs)   bands (ev):

   -36.4674 -36.4674 -36.1303 -36.1303 -36.1088 -36.1088 -35.7801 -35.7801
   -35.7382 -35.7382 -35.6581 -35.6581 -35.6128 -35.6128 -35.1671 -35.1671
   -35.1334 -35.1334 -34.9513 -34.9513 -34.8943 -34.8943 -34.8206 -34.8206
   -34.5964 -34.5964 -34.5807 -34.5807 -34.3912 -34.3912 -15.1446 -15.1446
   -15.1092 -15.1092 -15.0819 -15.0819 -15.0758 -15.0758 -12.2978 -12.2978
   -12.2972 -12.2972 -12.2694 -12.2694 -12.2502 -12.2502 -12.2459 -12.2459
   -12.2409 -12.2409  -5.5557  -5.5557  -4.9682  -4.9682  -4.2994  -4.2994
    -0.8571  -0.8571   0.2400   0.2400   6.3527   6.3527   6.9872   6.9872
     7.2408   7.2408   7.5034   7.5034   7.6646   7.6646   7.7196   7.7196
     7.8730   7.8730   8.1799   8.1799   8.6915   8.6915   9.3546   9.3546
    10.3244  10.3244  10.7894  10.7894  11.7224  11.7224  12.2271  12.2271
    12.7938  12.7938  15.9850  15.9850  16.3388  16.3388

          k = 0.0000 0.0000 0.0244 (  3069 PWs)   bands (ev):

   -36.4795 -36.4795 -36.1533 -36.1533 -36.1448 -36.1448 -35.9214 -35.9214
   -35.7707 -35.7707 -35.7514 -35.7514 -35.6402 -35.6402 -35.2301 -35.2301
   -35.2217 -35.2217 -35.0299 -35.0299 -34.9561 -34.9561 -34.9398 -34.9398
   -34.6792 -34.6792 -34.6183 -34.6183 -34.5142 -34.5142 -15.1464 -15.1464
   -15.1094 -15.1094 -15.0986 -15.0986 -15.0902 -15.0902 -12.2997 -12.2997
   -12.2982 -12.2982 -12.2762 -12.2762 -12.2640 -12.2640 -12.2537 -12.2537
   -12.2496 -12.2496  -5.5657  -5.5657  -4.9357  -4.9357  -4.3276  -4.3276
    -0.8324  -0.8324   0.2181   0.2181   6.3748   6.3748   6.9586   6.9586
     7.2541   7.2541   7.5061   7.5061   7.6491   7.6491   7.7269   7.7269
     7.8605   7.8605   8.1917   8.1917   8.7166   8.7166   9.3205   9.3205
    10.3476  10.3476  10.7599  10.7599  11.6999  11.6999  12.2526  12.2526
    12.8170  12.8170  15.9884  15.9884  16.3035  16.3035

          k = 0.0000 0.0000 0.0210 (  3063 PWs)   bands (ev):

   -36.4205 -36.4205 -36.0385 -36.0385 -35.9976 -35.9976 -35.9104 -35.9104
   -35.7019 -35.7019 -35.6510 -35.6510 -35.5961 -35.5961 -35.2015 -35.2015
   -35.0915 -35.0915 -34.9951 -34.9951 -34.9217 -34.9217 -34.7511 -34.7511
   -34.6490 -34.6490 -34.5968 -34.5968 -34.4893 -34.4893 -15.1446 -15.1446
   -15.1057 -15.1057 -15.0935 -15.0935 -15.0675 -15.0675 -12.2989 -12.2989
   -12.2945 -12.2945 -12.2734 -12.2734 -12.2632 -12.2632 -12.2362 -12.2362
   -12.2345 -12.2345  -5.5750  -5.5750  -4.9018  -4.9018  -4.3576  -4.3576
    -0.8073  -0.8073   0.1958   0.1958   6.3982   6.3982   6.9296   6.9296
     7.2704   7.2704   7.5088   7.5088   7.6191   7.6191   7.7469   7.7469
     7.8490   7.8490   8.2031   8.2031   8.7415   8.7415   9.2882   9.2882
    10.3693  10.3693  10.7333  10.7333  11.6815  11.6815  12.2771  12.2771
    12.8392  12.8392  15.9947  15.9947  16.2787  16.2787

          k = 0.0000 0.0000 0.0175 (  3063 PWs)   bands (ev):

   -36.4126 -36.4126 -36.0361 -36.0361 -36.0024 -36.0024 -35.9062 -35.9062
   -35.7017 -35.7017 -35.6471 -35.6471 -35.5906 -35.5906 -35.1993 -35.1993
   -35.0925 -35.0925 -34.9919 -34.9919 -34.9202 -34.9202 -34.7561 -34.7561
   -34.6414 -34.6414 -34.5920 -34.5920 -34.4890 -34.4890 -15.1435 -15.1435
   -15.1054 -15.1054 -15.0930 -15.0930 -15.0679 -15.0679 -12.2980 -12.2980
   -12.2939 -12.2939 -12.2731 -12.2731 -12.2628 -12.2628 -12.2368 -12.2368
   -12.2343 -12.2343  -5.5832  -5.5832  -4.8675  -4.8675  -4.3889  -4.3889
    -0.7829  -0.7829   0.1741   0.1741   6.4220   6.4220   6.9010   6.9010
     7.2892   7.2892   7.5114   7.5114   7.5856   7.5856   7.7675   7.7675
     7.8386   7.8386   8.2128   8.2128   8.7646   8.7646   9.2581   9.2581
    10.3887  10.3887  10.7087  10.7087  11.6647  11.6647  12.2992  12.2992
    12.8593  12.8593  15.9975  15.9975  16.2652  16.2652

          k = 0.0000 0.0000 0.0140 (  3069 PWs)   bands (ev):

   -36.4210 -36.4210 -36.2857 -36.2857 -36.1616 -36.1616 -35.9389 -35.9389
   -35.8498 -35.8498 -35.6916 -35.6916 -35.3240 -35.3240 -35.2595 -35.2595
   -35.1682 -35.1682 -35.0550 -35.0550 -34.9619 -34.9619 -34.8655 -34.8655
   -34.7986 -34.7986 -34.6499 -34.6499 -34.5039 -34.5039 -15.1338 -15.1338
   -15.1255 -15.1255 -15.0969 -15.0969 -15.0839 -15.0839 -12.3073 -12.3073
   -12.2882 -12.2882 -12.2761 -12.2761 -12.2615 -12.2615 -12.2565 -12.2565
   -12.2452 -12.2452  -5.5901  -5.5901  -4.8337  -4.8337  -4.4202  -4.4202
    -0.7604  -0.7604   0.1539   0.1539   6.4453   6.4453   6.8739   6.8739
     7.3104   7.3104   7.5138   7.5138   7.5510   7.5510   7.7855   7.7855
     7.8291   7.8291   8.2208   8.2208   8.7854   8.7854   9.2319   9.2319
    10.4058  10.4058  10.6874  10.6874  11.6502  11.6502  12.3197  12.3197
    12.8762  12.8762  15.9984  15.9984  16.2655  16.2655

          k = 0.0000 0.0000 0.0105 (  3078 PWs)   bands (ev):

   -36.5467 -36.5467 -36.3959 -36.3959 -36.2138 -36.2138 -36.0101 -36.0101
   -35.9636 -35.9636 -35.9271 -35.9271 -35.3822 -35.3822 -35.3161 -35.3161
   -35.2435 -35.2435 -35.1681 -35.1681 -35.1071 -35.1071 -34.9252 -34.9252
   -34.8860 -34.8860 -34.8344 -34.8344 -34.5631 -34.5631 -15.1607 -15.1607
   -15.1358 -15.1358 -15.1026 -15.1026 -15.0904 -15.0904 -12.3301 -12.3301
   -12.2955 -12.2955 -12.2908 -12.2908 -12.2665 -12.2665 -12.2621 -12.2621
   -12.2487 -12.2487  -5.5957  -5.5957  -4.8019  -4.8019  -4.4501  -4.4501
    -0.7411  -0.7411   0.1364   0.1364   6.4666   6.4666   6.8496   6.8496
     7.3338   7.3338   7.5159   7.5159   7.5167   7.5167   7.8009   7.8009
     7.8219   7.8219   8.2273   8.2273   8.8024   8.8024   9.2092   9.2092
    10.4193  10.4193  10.6680  10.6680  11.6359  11.6359  12.3352  12.3352
    12.8903  12.8903  15.9975  15.9975  16.2720  16.2720

          k = 0.0000 0.0000 0.0070 (  3084 PWs)   bands (ev):

   -36.5505 -36.5505 -36.4178 -36.4178 -36.3985 -36.3985 -36.2096 -36.2096
   -36.1276 -36.1276 -35.9453 -35.9453 -35.5423 -35.5423 -35.3539 -35.3539
   -35.3156 -35.3156 -35.2666 -35.2666 -35.1284 -35.1284 -34.9348 -34.9348
   -34.9289 -34.9289 -34.8744 -34.8744 -34.5608 -34.5608 -15.1796 -15.1796
   -15.1425 -15.1425 -15.1079 -15.1079 -15.0930 -15.0930 -12.3479 -12.3479
   -12.3080 -12.3080 -12.2915 -12.2915 -12.2705 -12.2705 -12.2658 -12.2658
   -12.2497 -12.2497  -5.5997  -5.5997  -4.7745  -4.7745  -4.4763  -4.4763
    -0.7263  -0.7263   0.1229   0.1229   6.4842   6.4842   6.8299   6.8299
     7.3592   7.3592   7.4833   7.4833   7.5174   7.5174   7.8124   7.8124
     7.8167   7.8167   8.2320   8.2320   8.8153   8.8153   9.1920   9.1920
    10.4291  10.4291  10.6533  10.6533  11.6247  11.6247  12.3466  12.3466
    12.9006  12.9006  15.9959  15.9959  16.2840  16.2840

          k = 0.0000 0.0000 0.0035 (  3078 PWs)   bands (ev):

   -36.4749 -36.4749 -36.3688 -36.3688 -36.2872 -36.2872 -36.2064 -36.2064
   -36.1802 -36.1802 -36.0788 -36.0788 -35.5127 -35.5127 -35.2560 -35.2560
   -35.0837 -35.0837 -35.0320 -35.0320 -34.9928 -34.9928 -34.9912 -34.9912
   -34.8121 -34.8121 -34.6257 -34.6257 -34.5921 -34.5921 -15.1514 -15.1514
   -15.1312 -15.1312 -15.1063 -15.1063 -15.1000 -15.1000 -12.3365 -12.3365
   -12.2937 -12.2937 -12.2775 -12.2775 -12.2766 -12.2766 -12.2574 -12.2574
   -12.2484 -12.2484  -5.6021  -5.6021  -4.7550  -4.7550  -4.4950  -4.4950
    -0.7169  -0.7169   0.1144   0.1144   6.4960   6.4960   6.8169   6.8169
     7.3860   7.3860   7.4517   7.4517   7.5183   7.5183   7.8137   7.8137
     7.8196   7.8196   8.2350   8.2350   8.8240   8.8240   9.1814   9.1814
    10.4355  10.4355  10.6451  10.6451  11.6184  11.6184  12.3544  12.3544
    12.9070  12.9070  16.0012  16.0012  16.2955  16.2955

          k = 0.0000 0.0000 0.0000 (  3063 PWs)   bands (ev):

   -36.3512 -36.3512 -36.3096 -36.3096 -36.1634 -36.1634 -36.1473 -36.1473
   -35.8972 -35.8972 -35.8939 -35.8939 -35.0631 -35.0631 -35.0327 -35.0327
   -34.9771 -34.9771 -34.8210 -34.8210 -34.8018 -34.8018 -34.7621 -34.7621
   -34.6347 -34.6347 -34.5269 -34.5269 -34.5035 -34.5035 -15.1434 -15.1434
   -15.1043 -15.1043 -15.0939 -15.0939 -15.0644 -15.0644 -12.3266 -12.3266
   -12.2745 -12.2745 -12.2718 -12.2718 -12.2486 -12.2486 -12.2467 -12.2467
   -12.2214 -12.2214  -5.6029  -5.6029  -4.7478  -4.7478  -4.5020  -4.5020
    -0.7136  -0.7136   0.1115   0.1115   6.5003   6.5003   6.8124   6.8124
     7.4060   7.4060   7.4305   7.4305   7.5188   7.5188   7.8128   7.8128
     7.8223   7.8223   8.2363   8.2363   8.8270   8.8270   9.1782   9.1782
    10.4377  10.4377  10.6430  10.6430  11.6177  11.6177  12.3571  12.3571
    12.9095  12.9095  16.0065  16.0065  16.3004  16.3004

     Writing output data file bi2se3.save/
 
     init_run     :      0.06s CPU      0.08s WALL (       1 calls)
     electrons    :    113.26s CPU    115.59s WALL (       1 calls)

     Called by init_run:
     wfcinit      :      0.00s CPU      0.00s WALL (       1 calls)
     potinit      :      0.02s CPU      0.02s WALL (       1 calls)
     hinit0       :      0.04s CPU      0.04s WALL (       1 calls)

     Called by electrons:
     c_bands      :    113.26s CPU    115.57s WALL (       1 calls)
     v_of_rho     :      0.01s CPU      0.02s WALL (       1 calls)

     Called by c_bands:
     init_us_2    :      0.01s CPU      0.02s WALL (      61 calls)
     cegterg      :    104.28s CPU    106.22s WALL (      82 calls)

     Called by sum_band:

     Called by *egterg:
     h_psi        :     79.30s CPU     80.57s WALL (    1392 calls)
     g_psi        :      0.10s CPU      0.10s WALL (    1249 calls)
     cdiaghg      :     23.58s CPU     24.21s WALL (    1310 calls)

     Called by h_psi:
     h_psi:pot    :     79.18s CPU     80.45s WALL (    1392 calls)
     h_psi:calbec :      1.30s CPU      1.32s WALL (    1392 calls)
     vloc_psi     :     75.47s CPU     76.71s WALL (    1392 calls)
     add_vuspsi   :      2.39s CPU      2.41s WALL (    1392 calls)

     General routines
     calbec       :      1.30s CPU      1.32s WALL (    1392 calls)
     fft          :      0.01s CPU      0.01s WALL (      14 calls)
     fftw         :     64.04s CPU     65.09s WALL (  250404 calls)
     davcio       :      0.03s CPU      0.29s WALL (     122 calls)
 
     Parallel routines
     fft_scatt_xy :     10.88s CPU     11.08s WALL (  250418 calls)
     fft_scatt_yz :     11.08s CPU     11.28s WALL (  250418 calls)
 
     PWSCF        :   1m54.15s CPU   1m59.89s WALL

 
   This run was terminated on:  12:13:34   2May2022            

=------------------------------------------------------------------------------=
   JOB DONE.
=------------------------------------------------------------------------------=
