
     Program BANDS v.6.4 starts on  2May2022 at 12:13:35 

     This program is part of the open-source Quantum ESPRESSO suite
     for quantum simulation of materials; please cite
         "P. Giannozzi et al., J. Phys.:Condens. Matter 21 395502 (2009);
         "P. Giannozzi et al., J. Phys.:Condens. Matter 29 465901 (2017);
          URL http://www.quantum-espresso.org", 
     in publications or presentations arising from this work. More details at
     http://www.quantum-espresso.org/quote

     Parallel version (MPI), running on     8 processors

     MPI processes distributed on     1 nodes
     R & G space division:  proc/nbgrp/npool/nimage =       8

     Reading data from directory:
     /scratch/irmik/jobs/580594/out/bi2se3.save/

     IMPORTANT: XC functional enforced from input :
     Exchange-correlation      = PBE ( 1  4  3  4 0 0)
     Any further DFT definition will be discarded
     Please, verify this is what you really want

 
     Parallelization info
     --------------------
     sticks:   dense  smooth     PW     G-vecs:    dense   smooth      PW
     Min         187     187     55                 3079     3079     493
     Max         188     188     56                 3080     3080     494
     Sum        1501    1501    443                24637    24637    3947
 

     Check: negative core charge=   -0.000002
     high-symmetry point:  0.0000 0.1394 0.0349   x coordinate   0.0000
     high-symmetry point:  0.0000 0.0000 0.0000   x coordinate   0.1437
     high-symmetry point: -0.1207 0.0697 0.0175   x coordinate   0.2841
     high-symmetry point:  0.0000 0.0000 0.0524   x coordinate   0.4278
     high-symmetry point:  0.0000 0.0000 0.0000   x coordinate   0.4802

     Plottable bands (eV) written to file bi2se3.bands.dat.gnu
     Bands written to file bi2se3.bands.dat

 **************************************************************************

                    xk=(   0.00000,   0.13936,   0.03492  )

     double point group C_2h (2/m) 
     there are  8 classes and  4 irreducible representations
     the character table:

       E     -E    C2    -C2   i     -i    s_h   -s_h 
                                                      
G_3+   1.00 -1.00  0.00  0.00  1.00 -1.00  0.00  0.00
G_4+   1.00 -1.00  0.00  0.00  1.00 -1.00  0.00  0.00
G_3-   1.00 -1.00  0.00  0.00 -1.00  1.00  0.00  0.00
G_4-   1.00 -1.00  0.00  0.00 -1.00  1.00  0.00  0.00

     imaginary part

       E     -E    C2    -C2   i     -i    s_h   -s_h 
                                                      
G_3+   0.00  0.00  1.00 -1.00  0.00  0.00  1.00 -1.00
G_4+   0.00  0.00 -1.00  1.00  0.00  0.00 -1.00  1.00
G_3-   0.00  0.00  1.00 -1.00  0.00  0.00 -1.00  1.00
G_4-   0.00  0.00 -1.00  1.00  0.00  0.00  1.00 -1.00

     the symmetry operations in each class and the name of the first element:

     E             1
                                                                 
     -E           -1
                                                                 
     C2            2
                                                                 
     -C2          -2
                                                                 
     i             3
                                                                 
     -i           -3
                                                                 
     s_h           4
                                                                 
     -s_h         -4
                                                                 

     Band symmetry, C_2h (2/m)  double point group:

     e(  1 -  2) =    -36.95141  eV     2   --> G_3+           
     e(  1 -  2) =    -36.95141  eV     2   --> G_4+           
     e(  3 -  4) =    -36.51143  eV     2   --> G_3-           
     e(  3 -  4) =    -36.51143  eV     2   --> G_4-           
     e(  5 -  6) =    -36.46116  eV     2   --> G_3+           
     e(  5 -  6) =    -36.46116  eV     2   --> G_4+           
     e(  7 -  8) =    -36.19684  eV     2   --> G_3+           
     e(  7 -  8) =    -36.19684  eV     2   --> G_4+           
     e(  9 - 10) =    -36.05123  eV     2   --> G_3+           
     e(  9 - 10) =    -36.05123  eV     2   --> G_4+           
     e( 11 - 12) =    -35.90833  eV     2   --> G_3-           
     e( 11 - 12) =    -35.90833  eV     2   --> G_4-           
     e( 13 - 14) =    -35.84627  eV     2   --> G_3+           
     e( 13 - 14) =    -35.84627  eV     2   --> G_4+           
     e( 15 - 16) =    -35.62086  eV     2   --> G_3+           
     e( 15 - 16) =    -35.62086  eV     2   --> G_4+           
     e( 17 - 18) =    -35.46522  eV     2   --> G_3-           
     e( 17 - 18) =    -35.46522  eV     2   --> G_4-           
     e( 19 - 20) =    -35.44606  eV     2   --> G_3+           
     e( 19 - 20) =    -35.44606  eV     2   --> G_4+           
     e( 21 - 22) =    -35.36772  eV     2   --> G_3+           
     e( 21 - 22) =    -35.36772  eV     2   --> G_4+           
     e( 23 - 24) =    -35.18180  eV     2   --> G_3-           
     e( 23 - 24) =    -35.18180  eV     2   --> G_4-           
     e( 25 - 26) =    -35.11515  eV     2   --> G_3+           
     e( 25 - 26) =    -35.11515  eV     2   --> G_4+           
     e( 27 - 28) =    -35.07740  eV     2   --> G_3+           
     e( 27 - 28) =    -35.07740  eV     2   --> G_4+           
     e( 29 - 30) =    -34.90033  eV     2   --> G_3-           
     e( 29 - 30) =    -34.90033  eV     2   --> G_4-           
     e( 31 - 32) =    -15.18211  eV     2   --> G_3+           
     e( 31 - 32) =    -15.18211  eV     2   --> G_4+           
     e( 33 - 34) =    -15.15183  eV     2   --> G_3-           
     e( 33 - 34) =    -15.15183  eV     2   --> G_4-           
     e( 35 - 36) =    -15.15051  eV     2   --> G_3+           
     e( 35 - 36) =    -15.15051  eV     2   --> G_4+           
     e( 37 - 38) =    -15.11994  eV     2   --> G_3-           
     e( 37 - 38) =    -15.11994  eV     2   --> G_4-           
     e( 39 - 40) =    -12.35001  eV     2   --> G_3+           
     e( 39 - 40) =    -12.35001  eV     2   --> G_4+           
     e( 41 - 42) =    -12.31766  eV     2   --> G_3-           
     e( 41 - 42) =    -12.31766  eV     2   --> G_4-           
     e( 43 - 44) =    -12.31338  eV     2   --> G_3+           
     e( 43 - 44) =    -12.31338  eV     2   --> G_4+           
     e( 45 - 46) =    -12.29404  eV     2   --> G_3-           
     e( 45 - 46) =    -12.29404  eV     2   --> G_4-           
     e( 47 - 48) =    -12.29254  eV     2   --> G_3+           
     e( 47 - 48) =    -12.29254  eV     2   --> G_4+           
     e( 49 - 50) =    -12.26898  eV     2   --> G_3-           
     e( 49 - 50) =    -12.26898  eV     2   --> G_4-           
     e( 51 - 52) =     -4.39484  eV     2   --> G_3+           
     e( 51 - 52) =     -4.39484  eV     2   --> G_4+           
     e( 53 - 54) =     -4.16669  eV     2   --> G_3-           
     e( 53 - 54) =     -4.16669  eV     2   --> G_4-           
     e( 55 - 56) =     -4.00396  eV     2   --> G_3+           
     e( 55 - 56) =     -4.00396  eV     2   --> G_4+           
     e( 57 - 58) =     -1.41889  eV     2   --> G_3-           
     e( 57 - 58) =     -1.41889  eV     2   --> G_4-           
     e( 59 - 60) =     -0.92084  eV     2   --> G_3+           
     e( 59 - 60) =     -0.92084  eV     2   --> G_4+           
     e( 61 - 62) =      4.09813  eV     2   --> G_3-           
     e( 61 - 62) =      4.09813  eV     2   --> G_4-           
     e( 63 - 64) =      5.12422  eV     2   --> G_3+           
     e( 63 - 64) =      5.12422  eV     2   --> G_4+           
     e( 65 - 66) =      5.27299  eV     2   --> G_3-           
     e( 65 - 66) =      5.27299  eV     2   --> G_4-           
     e( 67 - 68) =      5.98690  eV     2   --> G_3-           
     e( 67 - 68) =      5.98690  eV     2   --> G_4-           
     e( 69 - 70) =      6.68401  eV     2   --> G_3+           
     e( 69 - 70) =      6.68401  eV     2   --> G_4+           
     e( 71 - 72) =      7.29226  eV     2   --> G_3-           
     e( 71 - 72) =      7.29226  eV     2   --> G_4-           
     e( 73 - 74) =      7.52205  eV     2   --> G_3+           
     e( 73 - 74) =      7.52205  eV     2   --> G_4+           
     e( 75 - 76) =      7.61298  eV     2   --> G_3-           
     e( 75 - 76) =      7.61298  eV     2   --> G_4-           
     e( 77 - 78) =      8.25463  eV     2   --> G_3-           
     e( 77 - 78) =      8.25463  eV     2   --> G_4-           
     e( 79 - 80) =     10.25239  eV     2   --> G_3+           
     e( 79 - 80) =     10.25239  eV     2   --> G_4+           
     e( 81 - 82) =     11.37610  eV     2   --> G_3+           
     e( 81 - 82) =     11.37610  eV     2   --> G_4+           
     e( 83 - 84) =     11.63725  eV     2   --> G_3-           
     e( 83 - 84) =     11.63725  eV     2   --> G_4-           
     e( 85 - 86) =     12.23290  eV     2   --> G_3+           
     e( 85 - 86) =     12.23290  eV     2   --> G_4+           
     e( 87 - 88) =     13.18606  eV     2   --> G_3-           
     e( 87 - 88) =     13.18606  eV     2   --> G_4-           
     e( 89 - 90) =     13.70765  eV     2   --> G_3+           
     e( 89 - 90) =     13.70765  eV     2   --> G_4+           
     e( 91 - 92) =     14.32289  eV     2   --> G_3-           
     e( 91 - 92) =     14.32289  eV     2   --> G_4-           
     e( 93 - 94) =     16.62299  eV     2   --> G_3-           
     e( 93 - 94) =     16.62299  eV     2   --> G_4-           

 **************************************************************************

 **************************************************************************

                    xk=(   0.00000,   0.13007,   0.03259  )

     double point group C_s (m)    
     there are  4 classes and  2 irreducible representations
     the character table:

       E     -E    s     -s   
                              
G_3    1.00 -1.00  0.00  0.00
G_4    1.00 -1.00  0.00  0.00

     imaginary part

       E     -E    s     -s   
                              
G_3    0.00  0.00  1.00 -1.00
G_4    0.00  0.00 -1.00  1.00

     the symmetry operations in each class and the name of the first element:

     E             1
                                                                 
     -E           -1
                                                                 
     s             2
                                                                 
     -s           -2
                                                                 

     Band symmetry, C_s (m)     double point group:

     e(  1 -  2) =    -37.00268  eV     2   --> G_3            
     e(  1 -  2) =    -37.00268  eV     2   --> G_4            
     e(  3 -  4) =    -36.53278  eV     2   --> G_3            
     e(  3 -  4) =    -36.53278  eV     2   --> G_4            
     e(  5 -  6) =    -36.47257  eV     2   --> G_3            
     e(  5 -  6) =    -36.47257  eV     2   --> G_4            
     e(  7 -  8) =    -36.28284  eV     2   --> G_3            
     e(  7 -  8) =    -36.28284  eV     2   --> G_4            
     e(  9 - 10) =    -36.07818  eV     2   --> G_3            
     e(  9 - 10) =    -36.07818  eV     2   --> G_4            
     e( 11 - 12) =    -35.95727  eV     2   --> G_3            
     e( 11 - 12) =    -35.95727  eV     2   --> G_4            
     e( 13 - 14) =    -35.83765  eV     2   --> G_3            
     e( 13 - 14) =    -35.83765  eV     2   --> G_4            
     e( 15 - 16) =    -35.64245  eV     2   --> G_3            
     e( 15 - 16) =    -35.64245  eV     2   --> G_4            
     e( 17 - 18) =    -35.58389  eV     2   --> G_3            
     e( 17 - 18) =    -35.58389  eV     2   --> G_4            
     e( 19 - 20) =    -35.47203  eV     2   --> G_3            
     e( 19 - 20) =    -35.47203  eV     2   --> G_4            
     e( 21 - 22) =    -35.33672  eV     2   --> G_3            
     e( 21 - 22) =    -35.33672  eV     2   --> G_4            
     e( 23 - 24) =    -35.26186  eV     2   --> G_3            
     e( 23 - 24) =    -35.26186  eV     2   --> G_4            
     e( 25 - 26) =    -35.19464  eV     2   --> G_3            
     e( 25 - 26) =    -35.19464  eV     2   --> G_4            
     e( 27 - 28) =    -34.99045  eV     2   --> G_3            
     e( 27 - 28) =    -34.99045  eV     2   --> G_4            
     e( 29 - 30) =    -34.93231  eV     2   --> G_3            
     e( 29 - 30) =    -34.93231  eV     2   --> G_4            
     e( 31 - 32) =    -15.18472  eV     2   --> G_3            
     e( 31 - 32) =    -15.18472  eV     2   --> G_4            
     e( 33 - 34) =    -15.16224  eV     2   --> G_3            
     e( 33 - 34) =    -15.16224  eV     2   --> G_4            
     e( 35 - 36) =    -15.15639  eV     2   --> G_3            
     e( 35 - 36) =    -15.15639  eV     2   --> G_4            
     e( 37 - 38) =    -15.11541  eV     2   --> G_3            
     e( 37 - 38) =    -15.11541  eV     2   --> G_4            
     e( 39 - 40) =    -12.35268  eV     2   --> G_3            
     e( 39 - 40) =    -12.35268  eV     2   --> G_4            
     e( 41 - 42) =    -12.32650  eV     2   --> G_3            
     e( 41 - 42) =    -12.32650  eV     2   --> G_4            
     e( 43 - 44) =    -12.31704  eV     2   --> G_3            
     e( 43 - 44) =    -12.31704  eV     2   --> G_4            
     e( 45 - 46) =    -12.29666  eV     2   --> G_3            
     e( 45 - 46) =    -12.29666  eV     2   --> G_4            
     e( 47 - 48) =    -12.28838  eV     2   --> G_3            
     e( 47 - 48) =    -12.28838  eV     2   --> G_4            
     e( 49 - 50) =    -12.27290  eV     2   --> G_3            
     e( 49 - 50) =    -12.27290  eV     2   --> G_4            
     e( 51 - 52) =     -4.42337  eV     2   --> G_3            
     e( 51 - 52) =     -4.42337  eV     2   --> G_4            
     e( 53 - 54) =     -4.16860  eV     2   --> G_3            
     e( 53 - 54) =     -4.16860  eV     2   --> G_4            
     e( 55 - 56) =     -4.00628  eV     2   --> G_3            
     e( 55 - 56) =     -4.00628  eV     2   --> G_4            
     e( 57 - 58) =     -1.39944  eV     2   --> G_3            
     e( 57 - 58) =     -1.39944  eV     2   --> G_4            
     e( 59 - 60) =     -0.91242  eV     2   --> G_3            
     e( 59 - 60) =     -0.91242  eV     2   --> G_4            
     e( 61 - 62) =      4.09338  eV     2   --> G_3            
     e( 61 - 62) =      4.09338  eV     2   --> G_4            
     e( 63 - 64) =      5.15495  eV     2   --> G_3            
     e( 63 - 64) =      5.15495  eV     2   --> G_4            
     e( 65 - 66) =      5.31420  eV     2   --> G_3            
     e( 65 - 66) =      5.31420  eV     2   --> G_4            
     e( 67 - 68) =      5.99851  eV     2   --> G_3            
     e( 67 - 68) =      5.99851  eV     2   --> G_4            
     e( 69 - 70) =      6.69074  eV     2   --> G_3            
     e( 69 - 70) =      6.69074  eV     2   --> G_4            
     e( 71 - 72) =      7.28767  eV     2   --> G_3            
     e( 71 - 72) =      7.28767  eV     2   --> G_4            
     e( 73 - 74) =      7.52608  eV     2   --> G_3            
     e( 73 - 74) =      7.52608  eV     2   --> G_4            
     e( 75 - 76) =      7.61935  eV     2   --> G_3            
     e( 75 - 76) =      7.61935  eV     2   --> G_4            
     e( 77 - 78) =      8.21580  eV     2   --> G_3            
     e( 77 - 78) =      8.21580  eV     2   --> G_4            
     e( 79 - 80) =     10.28088  eV     2   --> G_3            
     e( 79 - 80) =     10.28088  eV     2   --> G_4            
     e( 81 - 82) =     11.40481  eV     2   --> G_3            
     e( 81 - 82) =     11.40481  eV     2   --> G_4            
     e( 83 - 84) =     11.62782  eV     2   --> G_3            
     e( 83 - 84) =     11.62782  eV     2   --> G_4            
     e( 85 - 86) =     12.24336  eV     2   --> G_3            
     e( 85 - 86) =     12.24336  eV     2   --> G_4            
     e( 87 - 88) =     13.17647  eV     2   --> G_3            
     e( 87 - 88) =     13.17647  eV     2   --> G_4            
     e( 89 - 90) =     13.72157  eV     2   --> G_3            
     e( 89 - 90) =     13.72157  eV     2   --> G_4            
     e( 91 - 92) =     14.27149  eV     2   --> G_3            
     e( 91 - 92) =     14.27149  eV     2   --> G_4            
     e( 93 - 94) =     16.61616  eV     2   --> G_3            
     e( 93 - 94) =     16.61616  eV     2   --> G_4            

 **************************************************************************

 **************************************************************************

                    xk=(   0.00000,   0.12077,   0.03026  )

     Band symmetry, C_s (m)     double point group:

     e(  1 -  2) =    -36.76100  eV     2   --> G_3            
     e(  1 -  2) =    -36.76100  eV     2   --> G_4            
     e(  3 -  4) =    -36.60290  eV     2   --> G_3            
     e(  3 -  4) =    -36.60290  eV     2   --> G_4            
     e(  5 -  6) =    -36.37989  eV     2   --> G_3            
     e(  5 -  6) =    -36.37989  eV     2   --> G_4            
     e(  7 -  8) =    -36.30151  eV     2   --> G_3            
     e(  7 -  8) =    -36.30151  eV     2   --> G_4            
     e(  9 - 10) =    -36.15633  eV     2   --> G_3            
     e(  9 - 10) =    -36.15633  eV     2   --> G_4            
     e( 11 - 12) =    -35.91046  eV     2   --> G_3            
     e( 11 - 12) =    -35.91046  eV     2   --> G_4            
     e( 13 - 14) =    -35.76158  eV     2   --> G_3            
     e( 13 - 14) =    -35.76158  eV     2   --> G_4            
     e( 15 - 16) =    -35.64335  eV     2   --> G_3            
     e( 15 - 16) =    -35.64335  eV     2   --> G_4            
     e( 17 - 18) =    -35.58060  eV     2   --> G_3            
     e( 17 - 18) =    -35.58060  eV     2   --> G_4            
     e( 19 - 20) =    -35.49204  eV     2   --> G_3            
     e( 19 - 20) =    -35.49204  eV     2   --> G_4            
     e( 21 - 22) =    -35.35203  eV     2   --> G_3            
     e( 21 - 22) =    -35.35203  eV     2   --> G_4            
     e( 23 - 24) =    -35.16855  eV     2   --> G_3            
     e( 23 - 24) =    -35.16855  eV     2   --> G_4            
     e( 25 - 26) =    -35.09445  eV     2   --> G_3            
     e( 25 - 26) =    -35.09445  eV     2   --> G_4            
     e( 27 - 28) =    -35.05535  eV     2   --> G_3            
     e( 27 - 28) =    -35.05535  eV     2   --> G_4            
     e( 29 - 30) =    -34.87094  eV     2   --> G_3            
     e( 29 - 30) =    -34.87094  eV     2   --> G_4            
     e( 31 - 32) =    -15.17694  eV     2   --> G_3            
     e( 31 - 32) =    -15.17694  eV     2   --> G_4            
     e( 33 - 34) =    -15.16205  eV     2   --> G_3            
     e( 33 - 34) =    -15.16205  eV     2   --> G_4            
     e( 35 - 36) =    -15.15176  eV     2   --> G_3            
     e( 35 - 36) =    -15.15176  eV     2   --> G_4            
     e( 37 - 38) =    -15.11422  eV     2   --> G_3            
     e( 37 - 38) =    -15.11422  eV     2   --> G_4            
     e( 39 - 40) =    -12.33961  eV     2   --> G_3            
     e( 39 - 40) =    -12.33961  eV     2   --> G_4            
     e( 41 - 42) =    -12.32742  eV     2   --> G_3            
     e( 41 - 42) =    -12.32742  eV     2   --> G_4            
     e( 43 - 44) =    -12.31995  eV     2   --> G_3            
     e( 43 - 44) =    -12.31995  eV     2   --> G_4            
     e( 45 - 46) =    -12.29337  eV     2   --> G_3            
     e( 45 - 46) =    -12.29337  eV     2   --> G_4            
     e( 47 - 48) =    -12.28657  eV     2   --> G_3            
     e( 47 - 48) =    -12.28657  eV     2   --> G_4            
     e( 49 - 50) =    -12.27029  eV     2   --> G_3            
     e( 49 - 50) =    -12.27029  eV     2   --> G_4            
     e( 51 - 52) =     -4.49717  eV     2   --> G_3            
     e( 51 - 52) =     -4.49717  eV     2   --> G_4            
     e( 53 - 54) =     -4.18330  eV     2   --> G_3            
     e( 53 - 54) =     -4.18330  eV     2   --> G_4            
     e( 55 - 56) =     -4.01195  eV     2   --> G_3            
     e( 55 - 56) =     -4.01195  eV     2   --> G_4            
     e( 57 - 58) =     -1.34332  eV     2   --> G_3            
     e( 57 - 58) =     -1.34332  eV     2   --> G_4            
     e( 59 - 60) =     -0.88640  eV     2   --> G_3            
     e( 59 - 60) =     -0.88640  eV     2   --> G_4            
     e( 61 - 62) =      4.09340  eV     2   --> G_3            
     e( 61 - 62) =      4.09340  eV     2   --> G_4            
     e( 63 - 64) =      5.21446  eV     2   --> G_3            
     e( 63 - 64) =      5.21446  eV     2   --> G_4            
     e( 65 - 66) =      5.45379  eV     2   --> G_3            
     e( 65 - 66) =      5.45379  eV     2   --> G_4            
     e( 67 - 68) =      6.03382  eV     2   --> G_3            
     e( 67 - 68) =      6.03382  eV     2   --> G_4            
     e( 69 - 70) =      6.71148  eV     2   --> G_3            
     e( 69 - 70) =      6.71148  eV     2   --> G_4            
     e( 71 - 72) =      7.27006  eV     2   --> G_3            
     e( 71 - 72) =      7.27006  eV     2   --> G_4            
     e( 73 - 74) =      7.53779  eV     2   --> G_3            
     e( 73 - 74) =      7.53779  eV     2   --> G_4            
     e( 75 - 76) =      7.63805  eV     2   --> G_3            
     e( 75 - 76) =      7.63805  eV     2   --> G_4            
     e( 77 - 78) =      8.12393  eV     2   --> G_3            
     e( 77 - 78) =      8.12393  eV     2   --> G_4            
     e( 79 - 80) =     10.34671  eV     2   --> G_3            
     e( 79 - 80) =     10.34671  eV     2   --> G_4            
     e( 81 - 82) =     11.48099  eV     2   --> G_3            
     e( 81 - 82) =     11.48099  eV     2   --> G_4            
     e( 83 - 84) =     11.60215  eV     2   --> G_3            
     e( 83 - 84) =     11.60215  eV     2   --> G_4            
     e( 85 - 86) =     12.27527  eV     2   --> G_3            
     e( 85 - 86) =     12.27527  eV     2   --> G_4            
     e( 87 - 88) =     13.14731  eV     2   --> G_3            
     e( 87 - 88) =     13.14731  eV     2   --> G_4            
     e( 89 - 90) =     13.76213  eV     2   --> G_3            
     e( 89 - 90) =     13.76213  eV     2   --> G_4            
     e( 91 - 92) =     14.13118  eV     2   --> G_3            
     e( 91 - 92) =     14.13118  eV     2   --> G_4            
     e( 93 - 94) =     16.59841  eV     2   --> G_3            
     e( 93 - 94) =     16.59841  eV     2   --> G_4            

 **************************************************************************

 **************************************************************************

                    xk=(   0.00000,   0.11148,   0.02794  )

     Band symmetry, C_s (m)     double point group:

     e(  1 -  2) =    -36.72342  eV     2   --> G_3            
     e(  1 -  2) =    -36.72342  eV     2   --> G_4            
     e(  3 -  4) =    -36.67991  eV     2   --> G_3            
     e(  3 -  4) =    -36.67991  eV     2   --> G_4            
     e(  5 -  6) =    -36.48965  eV     2   --> G_3            
     e(  5 -  6) =    -36.48965  eV     2   --> G_4            
     e(  7 -  8) =    -36.28749  eV     2   --> G_3            
     e(  7 -  8) =    -36.28749  eV     2   --> G_4            
     e(  9 - 10) =    -36.10524  eV     2   --> G_3            
     e(  9 - 10) =    -36.10524  eV     2   --> G_4            
     e( 11 - 12) =    -35.99654  eV     2   --> G_3            
     e( 11 - 12) =    -35.99654  eV     2   --> G_4            
     e( 13 - 14) =    -35.83905  eV     2   --> G_3            
     e( 13 - 14) =    -35.83905  eV     2   --> G_4            
     e( 15 - 16) =    -35.78270  eV     2   --> G_3            
     e( 15 - 16) =    -35.78270  eV     2   --> G_4            
     e( 17 - 18) =    -35.66049  eV     2   --> G_3            
     e( 17 - 18) =    -35.66049  eV     2   --> G_4            
     e( 19 - 20) =    -35.47089  eV     2   --> G_3            
     e( 19 - 20) =    -35.47089  eV     2   --> G_4            
     e( 21 - 22) =    -35.41739  eV     2   --> G_3            
     e( 21 - 22) =    -35.41739  eV     2   --> G_4            
     e( 23 - 24) =    -35.29615  eV     2   --> G_3            
     e( 23 - 24) =    -35.29615  eV     2   --> G_4            
     e( 25 - 26) =    -35.21761  eV     2   --> G_3            
     e( 25 - 26) =    -35.21761  eV     2   --> G_4            
     e( 27 - 28) =    -35.08130  eV     2   --> G_3            
     e( 27 - 28) =    -35.08130  eV     2   --> G_4            
     e( 29 - 30) =    -34.87772  eV     2   --> G_3            
     e( 29 - 30) =    -34.87772  eV     2   --> G_4            
     e( 31 - 32) =    -15.18244  eV     2   --> G_3            
     e( 31 - 32) =    -15.18244  eV     2   --> G_4            
     e( 33 - 34) =    -15.17004  eV     2   --> G_3            
     e( 33 - 34) =    -15.17004  eV     2   --> G_4            
     e( 35 - 36) =    -15.14549  eV     2   --> G_3            
     e( 35 - 36) =    -15.14549  eV     2   --> G_4            
     e( 37 - 38) =    -15.13213  eV     2   --> G_3            
     e( 37 - 38) =    -15.13213  eV     2   --> G_4            
     e( 39 - 40) =    -12.33782  eV     2   --> G_3            
     e( 39 - 40) =    -12.33782  eV     2   --> G_4            
     e( 41 - 42) =    -12.33224  eV     2   --> G_3            
     e( 41 - 42) =    -12.33224  eV     2   --> G_4            
     e( 43 - 44) =    -12.32568  eV     2   --> G_3            
     e( 43 - 44) =    -12.32568  eV     2   --> G_4            
     e( 45 - 46) =    -12.31201  eV     2   --> G_3            
     e( 45 - 46) =    -12.31201  eV     2   --> G_4            
     e( 47 - 48) =    -12.28714  eV     2   --> G_3            
     e( 47 - 48) =    -12.28714  eV     2   --> G_4            
     e( 49 - 50) =    -12.27244  eV     2   --> G_3            
     e( 49 - 50) =    -12.27244  eV     2   --> G_4            
     e( 51 - 52) =     -4.59838  eV     2   --> G_3            
     e( 51 - 52) =     -4.59838  eV     2   --> G_4            
     e( 53 - 54) =     -4.21987  eV     2   --> G_3            
     e( 53 - 54) =     -4.21987  eV     2   --> G_4            
     e( 55 - 56) =     -4.02235  eV     2   --> G_3            
     e( 55 - 56) =     -4.02235  eV     2   --> G_4            
     e( 57 - 58) =     -1.25848  eV     2   --> G_3            
     e( 57 - 58) =     -1.25848  eV     2   --> G_4            
     e( 59 - 60) =     -0.84599  eV     2   --> G_3            
     e( 59 - 60) =     -0.84599  eV     2   --> G_4            
     e( 61 - 62) =      4.12427  eV     2   --> G_3            
     e( 61 - 62) =      4.12427  eV     2   --> G_4            
     e( 63 - 64) =      5.28259  eV     2   --> G_3            
     e( 63 - 64) =      5.28259  eV     2   --> G_4            
     e( 65 - 66) =      5.67443  eV     2   --> G_3            
     e( 65 - 66) =      5.67443  eV     2   --> G_4            
     e( 67 - 68) =      6.09481  eV     2   --> G_3            
     e( 67 - 68) =      6.09481  eV     2   --> G_4            
     e( 69 - 70) =      6.74434  eV     2   --> G_3            
     e( 69 - 70) =      6.74434  eV     2   --> G_4            
     e( 71 - 72) =      7.22963  eV     2   --> G_3            
     e( 71 - 72) =      7.22963  eV     2   --> G_4            
     e( 73 - 74) =      7.55550  eV     2   --> G_3            
     e( 73 - 74) =      7.55550  eV     2   --> G_4            
     e( 75 - 76) =      7.66925  eV     2   --> G_3            
     e( 75 - 76) =      7.66925  eV     2   --> G_4            
     e( 77 - 78) =      8.03207  eV     2   --> G_3            
     e( 77 - 78) =      8.03207  eV     2   --> G_4            
     e( 79 - 80) =     10.41440  eV     2   --> G_3            
     e( 79 - 80) =     10.41440  eV     2   --> G_4            
     e( 81 - 82) =     11.51737  eV     2   --> G_3            
     e( 81 - 82) =     11.51737  eV     2   --> G_4            
     e( 83 - 84) =     11.62327  eV     2   --> G_3            
     e( 83 - 84) =     11.62327  eV     2   --> G_4            
     e( 85 - 86) =     12.33444  eV     2   --> G_3            
     e( 85 - 86) =     12.33444  eV     2   --> G_4            
     e( 87 - 88) =     13.09511  eV     2   --> G_3            
     e( 87 - 88) =     13.09511  eV     2   --> G_4            
     e( 89 - 90) =     13.78495  eV     2   --> G_3            
     e( 89 - 90) =     13.78495  eV     2   --> G_4            
     e( 91 - 92) =     13.96508  eV     2   --> G_3            
     e( 91 - 92) =     13.96508  eV     2   --> G_4            
     e( 93 - 94) =     16.57111  eV     2   --> G_3            
     e( 93 - 94) =     16.57111  eV     2   --> G_4            

 **************************************************************************

 **************************************************************************

                    xk=(   0.00000,   0.10219,   0.02561  )

     Band symmetry, C_s (m)     double point group:

     e(  1 -  2) =    -36.60064  eV     2   --> G_3            
     e(  1 -  2) =    -36.60064  eV     2   --> G_4            
     e(  3 -  4) =    -36.46106  eV     2   --> G_3            
     e(  3 -  4) =    -36.46106  eV     2   --> G_4            
     e(  5 -  6) =    -36.28475  eV     2   --> G_3            
     e(  5 -  6) =    -36.28475  eV     2   --> G_4            
     e(  7 -  8) =    -36.15760  eV     2   --> G_3            
     e(  7 -  8) =    -36.15760  eV     2   --> G_4            
     e(  9 - 10) =    -35.93082  eV     2   --> G_3            
     e(  9 - 10) =    -35.93082  eV     2   --> G_4            
     e( 11 - 12) =    -35.85269  eV     2   --> G_3            
     e( 11 - 12) =    -35.85269  eV     2   --> G_4            
     e( 13 - 14) =    -35.67201  eV     2   --> G_3            
     e( 13 - 14) =    -35.67201  eV     2   --> G_4            
     e( 15 - 16) =    -35.56494  eV     2   --> G_3            
     e( 15 - 16) =    -35.56494  eV     2   --> G_4            
     e( 17 - 18) =    -35.43241  eV     2   --> G_3            
     e( 17 - 18) =    -35.43241  eV     2   --> G_4            
     e( 19 - 20) =    -35.35970  eV     2   --> G_3            
     e( 19 - 20) =    -35.35970  eV     2   --> G_4            
     e( 21 - 22) =    -35.30970  eV     2   --> G_3            
     e( 21 - 22) =    -35.30970  eV     2   --> G_4            
     e( 23 - 24) =    -35.13317  eV     2   --> G_3            
     e( 23 - 24) =    -35.13317  eV     2   --> G_4            
     e( 25 - 26) =    -34.97076  eV     2   --> G_3            
     e( 25 - 26) =    -34.97076  eV     2   --> G_4            
     e( 27 - 28) =    -34.90099  eV     2   --> G_3            
     e( 27 - 28) =    -34.90099  eV     2   --> G_4            
     e( 29 - 30) =    -34.75466  eV     2   --> G_3            
     e( 29 - 30) =    -34.75466  eV     2   --> G_4            
     e( 31 - 32) =    -15.16716  eV     2   --> G_3            
     e( 31 - 32) =    -15.16716  eV     2   --> G_4            
     e( 33 - 34) =    -15.13990  eV     2   --> G_3            
     e( 33 - 34) =    -15.13990  eV     2   --> G_4            
     e( 35 - 36) =    -15.12908  eV     2   --> G_3            
     e( 35 - 36) =    -15.12908  eV     2   --> G_4            
     e( 37 - 38) =    -15.11420  eV     2   --> G_3            
     e( 37 - 38) =    -15.11420  eV     2   --> G_4            
     e( 39 - 40) =    -12.33118  eV     2   --> G_3            
     e( 39 - 40) =    -12.33118  eV     2   --> G_4            
     e( 41 - 42) =    -12.31446  eV     2   --> G_3            
     e( 41 - 42) =    -12.31446  eV     2   --> G_4            
     e( 43 - 44) =    -12.29449  eV     2   --> G_3            
     e( 43 - 44) =    -12.29449  eV     2   --> G_4            
     e( 45 - 46) =    -12.28773  eV     2   --> G_3            
     e( 45 - 46) =    -12.28773  eV     2   --> G_4            
     e( 47 - 48) =    -12.28065  eV     2   --> G_3            
     e( 47 - 48) =    -12.28065  eV     2   --> G_4            
     e( 49 - 50) =    -12.26207  eV     2   --> G_3            
     e( 49 - 50) =    -12.26207  eV     2   --> G_4            
     e( 51 - 52) =     -4.71474  eV     2   --> G_3            
     e( 51 - 52) =     -4.71474  eV     2   --> G_4            
     e( 53 - 54) =     -4.27386  eV     2   --> G_3            
     e( 53 - 54) =     -4.27386  eV     2   --> G_4            
     e( 55 - 56) =     -4.04129  eV     2   --> G_3            
     e( 55 - 56) =     -4.04129  eV     2   --> G_4            
     e( 57 - 58) =     -1.15672  eV     2   --> G_3            
     e( 57 - 58) =     -1.15672  eV     2   --> G_4            
     e( 59 - 60) =     -0.78918  eV     2   --> G_3            
     e( 59 - 60) =     -0.78918  eV     2   --> G_4            
     e( 61 - 62) =      4.20604  eV     2   --> G_3            
     e( 61 - 62) =      4.20604  eV     2   --> G_4            
     e( 63 - 64) =      5.36565  eV     2   --> G_3            
     e( 63 - 64) =      5.36565  eV     2   --> G_4            
     e( 65 - 66) =      5.92025  eV     2   --> G_3            
     e( 65 - 66) =      5.92025  eV     2   --> G_4            
     e( 67 - 68) =      6.18833  eV     2   --> G_3            
     e( 67 - 68) =      6.18833  eV     2   --> G_4            
     e( 69 - 70) =      6.78944  eV     2   --> G_3            
     e( 69 - 70) =      6.78944  eV     2   --> G_4            
     e( 71 - 72) =      7.16911  eV     2   --> G_3            
     e( 71 - 72) =      7.16911  eV     2   --> G_4            
     e( 73 - 74) =      7.57942  eV     2   --> G_3            
     e( 73 - 74) =      7.57942  eV     2   --> G_4            
     e( 75 - 76) =      7.71527  eV     2   --> G_3            
     e( 75 - 76) =      7.71527  eV     2   --> G_4            
     e( 77 - 78) =      7.98590  eV     2   --> G_3            
     e( 77 - 78) =      7.98590  eV     2   --> G_4            
     e( 79 - 80) =     10.46226  eV     2   --> G_3            
     e( 79 - 80) =     10.46226  eV     2   --> G_4            
     e( 81 - 82) =     11.43792  eV     2   --> G_3            
     e( 81 - 82) =     11.43792  eV     2   --> G_4            
     e( 83 - 84) =     11.72802  eV     2   --> G_3            
     e( 83 - 84) =     11.72802  eV     2   --> G_4            
     e( 85 - 86) =     12.42147  eV     2   --> G_3            
     e( 85 - 86) =     12.42147  eV     2   --> G_4            
     e( 87 - 88) =     13.02340  eV     2   --> G_3            
     e( 87 - 88) =     13.02340  eV     2   --> G_4            
     e( 89 - 90) =     13.62170  eV     2   --> G_3            
     e( 89 - 90) =     13.62170  eV     2   --> G_4            
     e( 91 - 92) =     13.99798  eV     2   --> G_3            
     e( 91 - 92) =     13.99798  eV     2   --> G_4            
     e( 93 - 94) =     16.54024  eV     2   --> G_3            
     e( 93 - 94) =     16.54024  eV     2   --> G_4            

 **************************************************************************

 **************************************************************************

                    xk=(   0.00000,   0.09290,   0.02328  )

     Band symmetry, C_s (m)     double point group:

     e(  1 -  2) =    -36.45489  eV     2   --> G_3            
     e(  1 -  2) =    -36.45489  eV     2   --> G_4            
     e(  3 -  4) =    -36.27020  eV     2   --> G_3            
     e(  3 -  4) =    -36.27020  eV     2   --> G_4            
     e(  5 -  6) =    -36.24721  eV     2   --> G_3            
     e(  5 -  6) =    -36.24721  eV     2   --> G_4            
     e(  7 -  8) =    -36.14370  eV     2   --> G_3            
     e(  7 -  8) =    -36.14370  eV     2   --> G_4            
     e(  9 - 10) =    -35.98888  eV     2   --> G_3            
     e(  9 - 10) =    -35.98888  eV     2   --> G_4            
     e( 11 - 12) =    -35.86988  eV     2   --> G_3            
     e( 11 - 12) =    -35.86988  eV     2   --> G_4            
     e( 13 - 14) =    -35.59487  eV     2   --> G_3            
     e( 13 - 14) =    -35.59487  eV     2   --> G_4            
     e( 15 - 16) =    -35.49310  eV     2   --> G_3            
     e( 15 - 16) =    -35.49310  eV     2   --> G_4            
     e( 17 - 18) =    -35.36594  eV     2   --> G_3            
     e( 17 - 18) =    -35.36594  eV     2   --> G_4            
     e( 19 - 20) =    -35.32843  eV     2   --> G_3            
     e( 19 - 20) =    -35.32843  eV     2   --> G_4            
     e( 21 - 22) =    -35.29322  eV     2   --> G_3            
     e( 21 - 22) =    -35.29322  eV     2   --> G_4            
     e( 23 - 24) =    -35.16136  eV     2   --> G_3            
     e( 23 - 24) =    -35.16136  eV     2   --> G_4            
     e( 25 - 26) =    -35.10023  eV     2   --> G_3            
     e( 25 - 26) =    -35.10023  eV     2   --> G_4            
     e( 27 - 28) =    -35.02927  eV     2   --> G_3            
     e( 27 - 28) =    -35.02927  eV     2   --> G_4            
     e( 29 - 30) =    -34.79178  eV     2   --> G_3            
     e( 29 - 30) =    -34.79178  eV     2   --> G_4            
     e( 31 - 32) =    -15.15768  eV     2   --> G_3            
     e( 31 - 32) =    -15.15768  eV     2   --> G_4            
     e( 33 - 34) =    -15.14026  eV     2   --> G_3            
     e( 33 - 34) =    -15.14026  eV     2   --> G_4            
     e( 35 - 36) =    -15.13127  eV     2   --> G_3            
     e( 35 - 36) =    -15.13127  eV     2   --> G_4            
     e( 37 - 38) =    -15.11470  eV     2   --> G_3            
     e( 37 - 38) =    -15.11470  eV     2   --> G_4            
     e( 39 - 40) =    -12.32106  eV     2   --> G_3            
     e( 39 - 40) =    -12.32106  eV     2   --> G_4            
     e( 41 - 42) =    -12.31378  eV     2   --> G_3            
     e( 41 - 42) =    -12.31378  eV     2   --> G_4            
     e( 43 - 44) =    -12.29776  eV     2   --> G_3            
     e( 43 - 44) =    -12.29776  eV     2   --> G_4            
     e( 45 - 46) =    -12.28693  eV     2   --> G_3            
     e( 45 - 46) =    -12.28693  eV     2   --> G_4            
     e( 47 - 48) =    -12.27818  eV     2   --> G_3            
     e( 47 - 48) =    -12.27818  eV     2   --> G_4            
     e( 49 - 50) =    -12.26517  eV     2   --> G_3            
     e( 49 - 50) =    -12.26517  eV     2   --> G_4            
     e( 51 - 52) =     -4.83826  eV     2   --> G_3            
     e( 51 - 52) =     -4.83826  eV     2   --> G_4            
     e( 53 - 54) =     -4.33865  eV     2   --> G_3            
     e( 53 - 54) =     -4.33865  eV     2   --> G_4            
     e( 55 - 56) =     -4.07177  eV     2   --> G_3            
     e( 55 - 56) =     -4.07177  eV     2   --> G_4            
     e( 57 - 58) =     -1.05478  eV     2   --> G_3            
     e( 57 - 58) =     -1.05478  eV     2   --> G_4            
     e( 59 - 60) =     -0.71384  eV     2   --> G_3            
     e( 59 - 60) =     -0.71384  eV     2   --> G_4            
     e( 61 - 62) =      4.34797  eV     2   --> G_3            
     e( 61 - 62) =      4.34797  eV     2   --> G_4            
     e( 63 - 64) =      5.46624  eV     2   --> G_3            
     e( 63 - 64) =      5.46624  eV     2   --> G_4            
     e( 65 - 66) =      6.12176  eV     2   --> G_3            
     e( 65 - 66) =      6.12176  eV     2   --> G_4            
     e( 67 - 68) =      6.31540  eV     2   --> G_3            
     e( 67 - 68) =      6.31540  eV     2   --> G_4            
     e( 69 - 70) =      6.86045  eV     2   --> G_3            
     e( 69 - 70) =      6.86045  eV     2   --> G_4            
     e( 71 - 72) =      7.12258  eV     2   --> G_3            
     e( 71 - 72) =      7.12258  eV     2   --> G_4            
     e( 73 - 74) =      7.60965  eV     2   --> G_3            
     e( 73 - 74) =      7.60965  eV     2   --> G_4            
     e( 75 - 76) =      7.77797  eV     2   --> G_3            
     e( 75 - 76) =      7.77797  eV     2   --> G_4            
     e( 77 - 78) =      7.99614  eV     2   --> G_3            
     e( 77 - 78) =      7.99614  eV     2   --> G_4            
     e( 79 - 80) =     10.48109  eV     2   --> G_3            
     e( 79 - 80) =     10.48109  eV     2   --> G_4            
     e( 81 - 82) =     11.31002  eV     2   --> G_3            
     e( 81 - 82) =     11.31002  eV     2   --> G_4            
     e( 83 - 84) =     11.80339  eV     2   --> G_3            
     e( 83 - 84) =     11.80339  eV     2   --> G_4            
     e( 85 - 86) =     12.47398  eV     2   --> G_3            
     e( 85 - 86) =     12.47398  eV     2   --> G_4            
     e( 87 - 88) =     12.96471  eV     2   --> G_3            
     e( 87 - 88) =     12.96471  eV     2   --> G_4            
     e( 89 - 90) =     13.39876  eV     2   --> G_3            
     e( 89 - 90) =     13.39876  eV     2   --> G_4            
     e( 91 - 92) =     14.13045  eV     2   --> G_3            
     e( 91 - 92) =     14.13045  eV     2   --> G_4            
     e( 93 - 94) =     16.49179  eV     2   --> G_3            
     e( 93 - 94) =     16.49179  eV     2   --> G_4            

 **************************************************************************

 **************************************************************************

                    xk=(   0.00000,   0.08361,   0.02095  )

     Band symmetry, C_s (m)     double point group:

     e(  1 -  2) =    -36.51485  eV     2   --> G_3            
     e(  1 -  2) =    -36.51485  eV     2   --> G_4            
     e(  3 -  4) =    -36.46002  eV     2   --> G_3            
     e(  3 -  4) =    -36.46002  eV     2   --> G_4            
     e(  5 -  6) =    -36.27733  eV     2   --> G_3            
     e(  5 -  6) =    -36.27733  eV     2   --> G_4            
     e(  7 -  8) =    -36.21835  eV     2   --> G_3            
     e(  7 -  8) =    -36.21835  eV     2   --> G_4            
     e(  9 - 10) =    -36.05928  eV     2   --> G_3            
     e(  9 - 10) =    -36.05928  eV     2   --> G_4            
     e( 11 - 12) =    -35.95547  eV     2   --> G_3            
     e( 11 - 12) =    -35.95547  eV     2   --> G_4            
     e( 13 - 14) =    -35.70769  eV     2   --> G_3            
     e( 13 - 14) =    -35.70769  eV     2   --> G_4            
     e( 15 - 16) =    -35.55594  eV     2   --> G_3            
     e( 15 - 16) =    -35.55594  eV     2   --> G_4            
     e( 17 - 18) =    -35.52272  eV     2   --> G_3            
     e( 17 - 18) =    -35.52272  eV     2   --> G_4            
     e( 19 - 20) =    -35.41919  eV     2   --> G_3            
     e( 19 - 20) =    -35.41919  eV     2   --> G_4            
     e( 21 - 22) =    -35.33743  eV     2   --> G_3            
     e( 21 - 22) =    -35.33743  eV     2   --> G_4            
     e( 23 - 24) =    -35.21557  eV     2   --> G_3            
     e( 23 - 24) =    -35.21557  eV     2   --> G_4            
     e( 25 - 26) =    -35.11634  eV     2   --> G_3            
     e( 25 - 26) =    -35.11634  eV     2   --> G_4            
     e( 27 - 28) =    -35.07318  eV     2   --> G_3            
     e( 27 - 28) =    -35.07318  eV     2   --> G_4            
     e( 29 - 30) =    -34.87911  eV     2   --> G_3            
     e( 29 - 30) =    -34.87911  eV     2   --> G_4            
     e( 31 - 32) =    -15.16460  eV     2   --> G_3            
     e( 31 - 32) =    -15.16460  eV     2   --> G_4            
     e( 33 - 34) =    -15.15543  eV     2   --> G_3            
     e( 33 - 34) =    -15.15543  eV     2   --> G_4            
     e( 35 - 36) =    -15.14185  eV     2   --> G_3            
     e( 35 - 36) =    -15.14185  eV     2   --> G_4            
     e( 37 - 38) =    -15.12014  eV     2   --> G_3            
     e( 37 - 38) =    -15.12014  eV     2   --> G_4            
     e( 39 - 40) =    -12.32639  eV     2   --> G_3            
     e( 39 - 40) =    -12.32639  eV     2   --> G_4            
     e( 41 - 42) =    -12.32277  eV     2   --> G_3            
     e( 41 - 42) =    -12.32277  eV     2   --> G_4            
     e( 43 - 44) =    -12.30647  eV     2   --> G_3            
     e( 43 - 44) =    -12.30647  eV     2   --> G_4            
     e( 45 - 46) =    -12.29740  eV     2   --> G_3            
     e( 45 - 46) =    -12.29740  eV     2   --> G_4            
     e( 47 - 48) =    -12.28461  eV     2   --> G_3            
     e( 47 - 48) =    -12.28461  eV     2   --> G_4            
     e( 49 - 50) =    -12.27167  eV     2   --> G_3            
     e( 49 - 50) =    -12.27167  eV     2   --> G_4            
     e( 51 - 52) =     -4.96266  eV     2   --> G_3            
     e( 51 - 52) =     -4.96266  eV     2   --> G_4            
     e( 53 - 54) =     -4.40752  eV     2   --> G_3            
     e( 53 - 54) =     -4.40752  eV     2   --> G_4            
     e( 55 - 56) =     -4.11299  eV     2   --> G_3            
     e( 55 - 56) =     -4.11299  eV     2   --> G_4            
     e( 57 - 58) =     -0.96872  eV     2   --> G_3            
     e( 57 - 58) =     -0.96872  eV     2   --> G_4            
     e( 59 - 60) =     -0.61468  eV     2   --> G_3            
     e( 59 - 60) =     -0.61468  eV     2   --> G_4            
     e( 61 - 62) =      4.55212  eV     2   --> G_3            
     e( 61 - 62) =      4.55212  eV     2   --> G_4            
     e( 63 - 64) =      5.58337  eV     2   --> G_3            
     e( 63 - 64) =      5.58337  eV     2   --> G_4            
     e( 65 - 66) =      6.25788  eV     2   --> G_3            
     e( 65 - 66) =      6.25788  eV     2   --> G_4            
     e( 67 - 68) =      6.39984  eV     2   --> G_3            
     e( 67 - 68) =      6.39984  eV     2   --> G_4            
     e( 69 - 70) =      7.00293  eV     2   --> G_3            
     e( 69 - 70) =      7.00293  eV     2   --> G_4            
     e( 71 - 72) =      7.13813  eV     2   --> G_3            
     e( 71 - 72) =      7.13813  eV     2   --> G_4            
     e( 73 - 74) =      7.64824  eV     2   --> G_3            
     e( 73 - 74) =      7.64824  eV     2   --> G_4            
     e( 75 - 76) =      7.85855  eV     2   --> G_3            
     e( 75 - 76) =      7.85855  eV     2   --> G_4            
     e( 77 - 78) =      8.05399  eV     2   --> G_3            
     e( 77 - 78) =      8.05399  eV     2   --> G_4            
     e( 79 - 80) =     10.46929  eV     2   --> G_3            
     e( 79 - 80) =     10.46929  eV     2   --> G_4            
     e( 81 - 82) =     11.13385  eV     2   --> G_3            
     e( 81 - 82) =     11.13385  eV     2   --> G_4            
     e( 83 - 84) =     11.83570  eV     2   --> G_3            
     e( 83 - 84) =     11.83570  eV     2   --> G_4            
     e( 85 - 86) =     12.39452  eV     2   --> G_3            
     e( 85 - 86) =     12.39452  eV     2   --> G_4            
     e( 87 - 88) =     12.97809  eV     2   --> G_3            
     e( 87 - 88) =     12.97809  eV     2   --> G_4            
     e( 89 - 90) =     13.22460  eV     2   --> G_3            
     e( 89 - 90) =     13.22460  eV     2   --> G_4            
     e( 91 - 92) =     14.29389  eV     2   --> G_3            
     e( 91 - 92) =     14.29389  eV     2   --> G_4            
     e( 93 - 94) =     16.41077  eV     2   --> G_3            
     e( 93 - 94) =     16.41077  eV     2   --> G_4            

 **************************************************************************

 **************************************************************************

                    xk=(   0.00000,   0.07432,   0.01862  )

     Band symmetry, C_s (m)     double point group:

     e(  1 -  2) =    -36.51607  eV     2   --> G_3            
     e(  1 -  2) =    -36.51607  eV     2   --> G_4            
     e(  3 -  4) =    -36.42025  eV     2   --> G_3            
     e(  3 -  4) =    -36.42025  eV     2   --> G_4            
     e(  5 -  6) =    -36.21232  eV     2   --> G_3            
     e(  5 -  6) =    -36.21232  eV     2   --> G_4            
     e(  7 -  8) =    -36.11787  eV     2   --> G_3            
     e(  7 -  8) =    -36.11787  eV     2   --> G_4            
     e(  9 - 10) =    -35.94296  eV     2   --> G_3            
     e(  9 - 10) =    -35.94296  eV     2   --> G_4            
     e( 11 - 12) =    -35.83586  eV     2   --> G_3            
     e( 11 - 12) =    -35.83586  eV     2   --> G_4            
     e( 13 - 14) =    -35.71566  eV     2   --> G_3            
     e( 13 - 14) =    -35.71566  eV     2   --> G_4            
     e( 15 - 16) =    -35.51609  eV     2   --> G_3            
     e( 15 - 16) =    -35.51609  eV     2   --> G_4            
     e( 17 - 18) =    -35.42210  eV     2   --> G_3            
     e( 17 - 18) =    -35.42210  eV     2   --> G_4            
     e( 19 - 20) =    -35.31511  eV     2   --> G_3            
     e( 19 - 20) =    -35.31511  eV     2   --> G_4            
     e( 21 - 22) =    -35.25892  eV     2   --> G_3            
     e( 21 - 22) =    -35.25892  eV     2   --> G_4            
     e( 23 - 24) =    -35.09919  eV     2   --> G_3            
     e( 23 - 24) =    -35.09919  eV     2   --> G_4            
     e( 25 - 26) =    -35.03529  eV     2   --> G_3            
     e( 25 - 26) =    -35.03529  eV     2   --> G_4            
     e( 27 - 28) =    -34.95099  eV     2   --> G_3            
     e( 27 - 28) =    -34.95099  eV     2   --> G_4            
     e( 29 - 30) =    -34.80819  eV     2   --> G_3            
     e( 29 - 30) =    -34.80819  eV     2   --> G_4            
     e( 31 - 32) =    -15.15263  eV     2   --> G_3            
     e( 31 - 32) =    -15.15263  eV     2   --> G_4            
     e( 33 - 34) =    -15.14267  eV     2   --> G_3            
     e( 33 - 34) =    -15.14267  eV     2   --> G_4            
     e( 35 - 36) =    -15.13597  eV     2   --> G_3            
     e( 35 - 36) =    -15.13597  eV     2   --> G_4            
     e( 37 - 38) =    -15.11520  eV     2   --> G_3            
     e( 37 - 38) =    -15.11520  eV     2   --> G_4            
     e( 39 - 40) =    -12.31829  eV     2   --> G_3            
     e( 39 - 40) =    -12.31829  eV     2   --> G_4            
     e( 41 - 42) =    -12.30859  eV     2   --> G_3            
     e( 41 - 42) =    -12.30859  eV     2   --> G_4            
     e( 43 - 44) =    -12.30360  eV     2   --> G_3            
     e( 43 - 44) =    -12.30360  eV     2   --> G_4            
     e( 45 - 46) =    -12.29110  eV     2   --> G_3            
     e( 45 - 46) =    -12.29110  eV     2   --> G_4            
     e( 47 - 48) =    -12.27813  eV     2   --> G_3            
     e( 47 - 48) =    -12.27813  eV     2   --> G_4            
     e( 49 - 50) =    -12.26626  eV     2   --> G_3            
     e( 49 - 50) =    -12.26626  eV     2   --> G_4            
     e( 51 - 52) =     -5.08328  eV     2   --> G_3            
     e( 51 - 52) =     -5.08328  eV     2   --> G_4            
     e( 53 - 54) =     -4.47552  eV     2   --> G_3            
     e( 53 - 54) =     -4.47552  eV     2   --> G_4            
     e( 55 - 56) =     -4.16296  eV     2   --> G_3            
     e( 55 - 56) =     -4.16296  eV     2   --> G_4            
     e( 57 - 58) =     -0.90416  eV     2   --> G_3            
     e( 57 - 58) =     -0.90416  eV     2   --> G_4            
     e( 59 - 60) =     -0.49501  eV     2   --> G_3            
     e( 59 - 60) =     -0.49501  eV     2   --> G_4            
     e( 61 - 62) =      4.81452  eV     2   --> G_3            
     e( 61 - 62) =      4.81452  eV     2   --> G_4            
     e( 63 - 64) =      5.71420  eV     2   --> G_3            
     e( 63 - 64) =      5.71420  eV     2   --> G_4            
     e( 65 - 66) =      6.31376  eV     2   --> G_3            
     e( 65 - 66) =      6.31376  eV     2   --> G_4            
     e( 67 - 68) =      6.45949  eV     2   --> G_3            
     e( 67 - 68) =      6.45949  eV     2   --> G_4            
     e( 69 - 70) =      7.14341  eV     2   --> G_3            
     e( 69 - 70) =      7.14341  eV     2   --> G_4            
     e( 71 - 72) =      7.27525  eV     2   --> G_3            
     e( 71 - 72) =      7.27525  eV     2   --> G_4            
     e( 73 - 74) =      7.69561  eV     2   --> G_3            
     e( 73 - 74) =      7.69561  eV     2   --> G_4            
     e( 75 - 76) =      7.96006  eV     2   --> G_3            
     e( 75 - 76) =      7.96006  eV     2   --> G_4            
     e( 77 - 78) =      8.15490  eV     2   --> G_3            
     e( 77 - 78) =      8.15490  eV     2   --> G_4            
     e( 79 - 80) =     10.42590  eV     2   --> G_3            
     e( 79 - 80) =     10.42590  eV     2   --> G_4            
     e( 81 - 82) =     10.90971  eV     2   --> G_3            
     e( 81 - 82) =     10.90971  eV     2   --> G_4            
     e( 83 - 84) =     11.82760  eV     2   --> G_3            
     e( 83 - 84) =     11.82760  eV     2   --> G_4            
     e( 85 - 86) =     12.22482  eV     2   --> G_3            
     e( 85 - 86) =     12.22482  eV     2   --> G_4            
     e( 87 - 88) =     12.95097  eV     2   --> G_3            
     e( 87 - 88) =     12.95097  eV     2   --> G_4            
     e( 89 - 90) =     13.17115  eV     2   --> G_3            
     e( 89 - 90) =     13.17115  eV     2   --> G_4            
     e( 91 - 92) =     14.49125  eV     2   --> G_3            
     e( 91 - 92) =     14.49125  eV     2   --> G_4            
     e( 93 - 94) =     16.29664  eV     2   --> G_3            
     e( 93 - 94) =     16.29664  eV     2   --> G_4            

 **************************************************************************

 **************************************************************************

                    xk=(   0.00000,   0.06503,   0.01630  )

     Band symmetry, C_s (m)     double point group:

     e(  1 -  2) =    -36.37805  eV     2   --> G_3            
     e(  1 -  2) =    -36.37805  eV     2   --> G_4            
     e(  3 -  4) =    -36.23768  eV     2   --> G_3            
     e(  3 -  4) =    -36.23768  eV     2   --> G_4            
     e(  5 -  6) =    -36.09135  eV     2   --> G_3            
     e(  5 -  6) =    -36.09135  eV     2   --> G_4            
     e(  7 -  8) =    -35.88022  eV     2   --> G_3            
     e(  7 -  8) =    -35.88022  eV     2   --> G_4            
     e(  9 - 10) =    -35.83139  eV     2   --> G_3            
     e(  9 - 10) =    -35.83139  eV     2   --> G_4            
     e( 11 - 12) =    -35.68455  eV     2   --> G_3            
     e( 11 - 12) =    -35.68455  eV     2   --> G_4            
     e( 13 - 14) =    -35.44208  eV     2   --> G_3            
     e( 13 - 14) =    -35.44208  eV     2   --> G_4            
     e( 15 - 16) =    -35.38917  eV     2   --> G_3            
     e( 15 - 16) =    -35.38917  eV     2   --> G_4            
     e( 17 - 18) =    -35.28225  eV     2   --> G_3            
     e( 17 - 18) =    -35.28225  eV     2   --> G_4            
     e( 19 - 20) =    -35.08758  eV     2   --> G_3            
     e( 19 - 20) =    -35.08758  eV     2   --> G_4            
     e( 21 - 22) =    -35.01698  eV     2   --> G_3            
     e( 21 - 22) =    -35.01698  eV     2   --> G_4            
     e( 23 - 24) =    -34.97054  eV     2   --> G_3            
     e( 23 - 24) =    -34.97054  eV     2   --> G_4            
     e( 25 - 26) =    -34.87743  eV     2   --> G_3            
     e( 25 - 26) =    -34.87743  eV     2   --> G_4            
     e( 27 - 28) =    -34.81800  eV     2   --> G_3            
     e( 27 - 28) =    -34.81800  eV     2   --> G_4            
     e( 29 - 30) =    -34.59776  eV     2   --> G_3            
     e( 29 - 30) =    -34.59776  eV     2   --> G_4            
     e( 31 - 32) =    -15.14687  eV     2   --> G_3            
     e( 31 - 32) =    -15.14687  eV     2   --> G_4            
     e( 33 - 34) =    -15.12666  eV     2   --> G_3            
     e( 33 - 34) =    -15.12666  eV     2   --> G_4            
     e( 35 - 36) =    -15.10535  eV     2   --> G_3            
     e( 35 - 36) =    -15.10535  eV     2   --> G_4            
     e( 37 - 38) =    -15.08591  eV     2   --> G_3            
     e( 37 - 38) =    -15.08591  eV     2   --> G_4            
     e( 39 - 40) =    -12.30809  eV     2   --> G_3            
     e( 39 - 40) =    -12.30809  eV     2   --> G_4            
     e( 41 - 42) =    -12.30453  eV     2   --> G_3            
     e( 41 - 42) =    -12.30453  eV     2   --> G_4            
     e( 43 - 44) =    -12.28355  eV     2   --> G_3            
     e( 43 - 44) =    -12.28355  eV     2   --> G_4            
     e( 45 - 46) =    -12.26572  eV     2   --> G_3            
     e( 45 - 46) =    -12.26572  eV     2   --> G_4            
     e( 47 - 48) =    -12.25791  eV     2   --> G_3            
     e( 47 - 48) =    -12.25791  eV     2   --> G_4            
     e( 49 - 50) =    -12.24648  eV     2   --> G_3            
     e( 49 - 50) =    -12.24648  eV     2   --> G_4            
     e( 51 - 52) =     -5.19628  eV     2   --> G_3            
     e( 51 - 52) =     -5.19628  eV     2   --> G_4            
     e( 53 - 54) =     -4.53918  eV     2   --> G_3            
     e( 53 - 54) =     -4.53918  eV     2   --> G_4            
     e( 55 - 56) =     -4.21852  eV     2   --> G_3            
     e( 55 - 56) =     -4.21852  eV     2   --> G_4            
     e( 57 - 58) =     -0.85646  eV     2   --> G_3            
     e( 57 - 58) =     -0.85646  eV     2   --> G_4            
     e( 59 - 60) =     -0.36717  eV     2   --> G_3            
     e( 59 - 60) =     -0.36717  eV     2   --> G_4            
     e( 61 - 62) =      5.12649  eV     2   --> G_3            
     e( 61 - 62) =      5.12649  eV     2   --> G_4            
     e( 63 - 64) =      5.85188  eV     2   --> G_3            
     e( 63 - 64) =      5.85188  eV     2   --> G_4            
     e( 65 - 66) =      6.29626  eV     2   --> G_3            
     e( 65 - 66) =      6.29626  eV     2   --> G_4            
     e( 67 - 68) =      6.58227  eV     2   --> G_3            
     e( 67 - 68) =      6.58227  eV     2   --> G_4            
     e( 69 - 70) =      7.23174  eV     2   --> G_3            
     e( 69 - 70) =      7.23174  eV     2   --> G_4            
     e( 71 - 72) =      7.46567  eV     2   --> G_3            
     e( 71 - 72) =      7.46567  eV     2   --> G_4            
     e( 73 - 74) =      7.74947  eV     2   --> G_3            
     e( 73 - 74) =      7.74947  eV     2   --> G_4            
     e( 75 - 76) =      8.08517  eV     2   --> G_3            
     e( 75 - 76) =      8.08517  eV     2   --> G_4            
     e( 77 - 78) =      8.29625  eV     2   --> G_3            
     e( 77 - 78) =      8.29625  eV     2   --> G_4            
     e( 79 - 80) =     10.34755  eV     2   --> G_3            
     e( 79 - 80) =     10.34755  eV     2   --> G_4            
     e( 81 - 82) =     10.65462  eV     2   --> G_3            
     e( 81 - 82) =     10.65462  eV     2   --> G_4            
     e( 83 - 84) =     11.77576  eV     2   --> G_3            
     e( 83 - 84) =     11.77576  eV     2   --> G_4            
     e( 85 - 86) =     12.05749  eV     2   --> G_3            
     e( 85 - 86) =     12.05749  eV     2   --> G_4            
     e( 87 - 88) =     12.83904  eV     2   --> G_3            
     e( 87 - 88) =     12.83904  eV     2   --> G_4            
     e( 89 - 90) =     13.18344  eV     2   --> G_3            
     e( 89 - 90) =     13.18344  eV     2   --> G_4            
     e( 91 - 92) =     14.71860  eV     2   --> G_3            
     e( 91 - 92) =     14.71860  eV     2   --> G_4            
     e( 93 - 94) =     16.17400  eV     2   --> G_3            
     e( 93 - 94) =     16.17400  eV     2   --> G_4            

 **************************************************************************

 **************************************************************************

                    xk=(   0.00000,   0.05574,   0.01397  )

     Band symmetry, C_s (m)     double point group:

     e(  1 -  2) =    -36.41521  eV     2   --> G_3            
     e(  1 -  2) =    -36.41521  eV     2   --> G_4            
     e(  3 -  4) =    -36.22119  eV     2   --> G_3            
     e(  3 -  4) =    -36.22119  eV     2   --> G_4            
     e(  5 -  6) =    -36.06389  eV     2   --> G_3            
     e(  5 -  6) =    -36.06389  eV     2   --> G_4            
     e(  7 -  8) =    -35.98749  eV     2   --> G_3            
     e(  7 -  8) =    -35.98749  eV     2   --> G_4            
     e(  9 - 10) =    -35.84689  eV     2   --> G_3            
     e(  9 - 10) =    -35.84689  eV     2   --> G_4            
     e( 11 - 12) =    -35.58252  eV     2   --> G_3            
     e( 11 - 12) =    -35.58252  eV     2   --> G_4            
     e( 13 - 14) =    -35.50026  eV     2   --> G_3            
     e( 13 - 14) =    -35.50026  eV     2   --> G_4            
     e( 15 - 16) =    -35.32086  eV     2   --> G_3            
     e( 15 - 16) =    -35.32086  eV     2   --> G_4            
     e( 17 - 18) =    -35.27377  eV     2   --> G_3            
     e( 17 - 18) =    -35.27377  eV     2   --> G_4            
     e( 19 - 20) =    -35.15799  eV     2   --> G_3            
     e( 19 - 20) =    -35.15799  eV     2   --> G_4            
     e( 21 - 22) =    -35.09539  eV     2   --> G_3            
     e( 21 - 22) =    -35.09539  eV     2   --> G_4            
     e( 23 - 24) =    -34.90515  eV     2   --> G_3            
     e( 23 - 24) =    -34.90515  eV     2   --> G_4            
     e( 25 - 26) =    -34.77167  eV     2   --> G_3            
     e( 25 - 26) =    -34.77167  eV     2   --> G_4            
     e( 27 - 28) =    -34.73043  eV     2   --> G_3            
     e( 27 - 28) =    -34.73043  eV     2   --> G_4            
     e( 29 - 30) =    -34.60733  eV     2   --> G_3            
     e( 29 - 30) =    -34.60733  eV     2   --> G_4            
     e( 31 - 32) =    -15.15037  eV     2   --> G_3            
     e( 31 - 32) =    -15.15037  eV     2   --> G_4            
     e( 33 - 34) =    -15.13436  eV     2   --> G_3            
     e( 33 - 34) =    -15.13436  eV     2   --> G_4            
     e( 35 - 36) =    -15.09664  eV     2   --> G_3            
     e( 35 - 36) =    -15.09664  eV     2   --> G_4            
     e( 37 - 38) =    -15.08057  eV     2   --> G_3            
     e( 37 - 38) =    -15.08057  eV     2   --> G_4            
     e( 39 - 40) =    -12.31526  eV     2   --> G_3            
     e( 39 - 40) =    -12.31526  eV     2   --> G_4            
     e( 41 - 42) =    -12.30298  eV     2   --> G_3            
     e( 41 - 42) =    -12.30298  eV     2   --> G_4            
     e( 43 - 44) =    -12.28341  eV     2   --> G_3            
     e( 43 - 44) =    -12.28341  eV     2   --> G_4            
     e( 45 - 46) =    -12.26899  eV     2   --> G_3            
     e( 45 - 46) =    -12.26899  eV     2   --> G_4            
     e( 47 - 48) =    -12.25430  eV     2   --> G_3            
     e( 47 - 48) =    -12.25430  eV     2   --> G_4            
     e( 49 - 50) =    -12.23751  eV     2   --> G_3            
     e( 49 - 50) =    -12.23751  eV     2   --> G_4            
     e( 51 - 52) =     -5.29896  eV     2   --> G_3            
     e( 51 - 52) =     -5.29896  eV     2   --> G_4            
     e( 53 - 54) =     -4.59605  eV     2   --> G_3            
     e( 53 - 54) =     -4.59605  eV     2   --> G_4            
     e( 55 - 56) =     -4.27720  eV     2   --> G_3            
     e( 55 - 56) =     -4.27720  eV     2   --> G_4            
     e( 57 - 58) =     -0.81969  eV     2   --> G_3            
     e( 57 - 58) =     -0.81969  eV     2   --> G_4            
     e( 59 - 60) =     -0.24391  eV     2   --> G_3            
     e( 59 - 60) =     -0.24391  eV     2   --> G_4            
     e( 61 - 62) =      5.47199  eV     2   --> G_3            
     e( 61 - 62) =      5.47199  eV     2   --> G_4            
     e( 63 - 64) =      5.98043  eV     2   --> G_3            
     e( 63 - 64) =      5.98043  eV     2   --> G_4            
     e( 65 - 66) =      6.31534  eV     2   --> G_3            
     e( 65 - 66) =      6.31534  eV     2   --> G_4            
     e( 67 - 68) =      6.72606  eV     2   --> G_3            
     e( 67 - 68) =      6.72606  eV     2   --> G_4            
     e( 69 - 70) =      7.31425  eV     2   --> G_3            
     e( 69 - 70) =      7.31425  eV     2   --> G_4            
     e( 71 - 72) =      7.60348  eV     2   --> G_3            
     e( 71 - 72) =      7.60348  eV     2   --> G_4            
     e( 73 - 74) =      7.80130  eV     2   --> G_3            
     e( 73 - 74) =      7.80130  eV     2   --> G_4            
     e( 75 - 76) =      8.22915  eV     2   --> G_3            
     e( 75 - 76) =      8.22915  eV     2   --> G_4            
     e( 77 - 78) =      8.44605  eV     2   --> G_3            
     e( 77 - 78) =      8.44605  eV     2   --> G_4            
     e( 79 - 80) =     10.22514  eV     2   --> G_3            
     e( 79 - 80) =     10.22514  eV     2   --> G_4            
     e( 81 - 82) =     10.41592  eV     2   --> G_3            
     e( 81 - 82) =     10.41592  eV     2   --> G_4            
     e( 83 - 84) =     11.66498  eV     2   --> G_3            
     e( 83 - 84) =     11.66498  eV     2   --> G_4            
     e( 85 - 86) =     11.94387  eV     2   --> G_3            
     e( 85 - 86) =     11.94387  eV     2   --> G_4            
     e( 87 - 88) =     12.72681  eV     2   --> G_3            
     e( 87 - 88) =     12.72681  eV     2   --> G_4            
     e( 89 - 90) =     13.13303  eV     2   --> G_3            
     e( 89 - 90) =     13.13303  eV     2   --> G_4            
     e( 91 - 92) =     14.96854  eV     2   --> G_3            
     e( 91 - 92) =     14.96854  eV     2   --> G_4            
     e( 93 - 94) =     16.06436  eV     2   --> G_3            
     e( 93 - 94) =     16.06436  eV     2   --> G_4            

 **************************************************************************

 **************************************************************************

                    xk=(   0.00000,   0.04645,   0.01164  )

     Band symmetry, C_s (m)     double point group:

     e(  1 -  2) =    -36.29128  eV     2   --> G_3            
     e(  1 -  2) =    -36.29128  eV     2   --> G_4            
     e(  3 -  4) =    -36.13579  eV     2   --> G_3            
     e(  3 -  4) =    -36.13579  eV     2   --> G_4            
     e(  5 -  6) =    -36.10469  eV     2   --> G_3            
     e(  5 -  6) =    -36.10469  eV     2   --> G_4            
     e(  7 -  8) =    -36.05042  eV     2   --> G_3            
     e(  7 -  8) =    -36.05042  eV     2   --> G_4            
     e(  9 - 10) =    -35.81846  eV     2   --> G_3            
     e(  9 - 10) =    -35.81846  eV     2   --> G_4            
     e( 11 - 12) =    -35.65202  eV     2   --> G_3            
     e( 11 - 12) =    -35.65202  eV     2   --> G_4            
     e( 13 - 14) =    -35.41649  eV     2   --> G_3            
     e( 13 - 14) =    -35.41649  eV     2   --> G_4            
     e( 15 - 16) =    -35.35085  eV     2   --> G_3            
     e( 15 - 16) =    -35.35085  eV     2   --> G_4            
     e( 17 - 18) =    -35.25891  eV     2   --> G_3            
     e( 17 - 18) =    -35.25891  eV     2   --> G_4            
     e( 19 - 20) =    -35.17488  eV     2   --> G_3            
     e( 19 - 20) =    -35.17488  eV     2   --> G_4            
     e( 21 - 22) =    -35.08776  eV     2   --> G_3            
     e( 21 - 22) =    -35.08776  eV     2   --> G_4            
     e( 23 - 24) =    -34.88416  eV     2   --> G_3            
     e( 23 - 24) =    -34.88416  eV     2   --> G_4            
     e( 25 - 26) =    -34.79946  eV     2   --> G_3            
     e( 25 - 26) =    -34.79946  eV     2   --> G_4            
     e( 27 - 28) =    -34.72415  eV     2   --> G_3            
     e( 27 - 28) =    -34.72415  eV     2   --> G_4            
     e( 29 - 30) =    -34.58116  eV     2   --> G_3            
     e( 29 - 30) =    -34.58116  eV     2   --> G_4            
     e( 31 - 32) =    -15.14590  eV     2   --> G_3            
     e( 31 - 32) =    -15.14590  eV     2   --> G_4            
     e( 33 - 34) =    -15.13204  eV     2   --> G_3            
     e( 33 - 34) =    -15.13204  eV     2   --> G_4            
     e( 35 - 36) =    -15.10118  eV     2   --> G_3            
     e( 35 - 36) =    -15.10118  eV     2   --> G_4            
     e( 37 - 38) =    -15.07800  eV     2   --> G_3            
     e( 37 - 38) =    -15.07800  eV     2   --> G_4            
     e( 39 - 40) =    -12.31196  eV     2   --> G_3            
     e( 39 - 40) =    -12.31196  eV     2   --> G_4            
     e( 41 - 42) =    -12.29603  eV     2   --> G_3            
     e( 41 - 42) =    -12.29603  eV     2   --> G_4            
     e( 43 - 44) =    -12.28758  eV     2   --> G_3            
     e( 43 - 44) =    -12.28758  eV     2   --> G_4            
     e( 45 - 46) =    -12.27267  eV     2   --> G_3            
     e( 45 - 46) =    -12.27267  eV     2   --> G_4            
     e( 47 - 48) =    -12.25181  eV     2   --> G_3            
     e( 47 - 48) =    -12.25181  eV     2   --> G_4            
     e( 49 - 50) =    -12.23630  eV     2   --> G_3            
     e( 49 - 50) =    -12.23630  eV     2   --> G_4            
     e( 51 - 52) =     -5.38891  eV     2   --> G_3            
     e( 51 - 52) =     -5.38891  eV     2   --> G_4            
     e( 53 - 54) =     -4.64438  eV     2   --> G_3            
     e( 53 - 54) =     -4.64438  eV     2   --> G_4            
     e( 55 - 56) =     -4.33518  eV     2   --> G_3            
     e( 55 - 56) =     -4.33518  eV     2   --> G_4            
     e( 57 - 58) =     -0.78969  eV     2   --> G_3            
     e( 57 - 58) =     -0.78969  eV     2   --> G_4            
     e( 59 - 60) =     -0.13408  eV     2   --> G_3            
     e( 59 - 60) =     -0.13408  eV     2   --> G_4            
     e( 61 - 62) =      5.82126  eV     2   --> G_3            
     e( 61 - 62) =      5.82126  eV     2   --> G_4            
     e( 63 - 64) =      6.08414  eV     2   --> G_3            
     e( 63 - 64) =      6.08414  eV     2   --> G_4            
     e( 65 - 66) =      6.43026  eV     2   --> G_3            
     e( 65 - 66) =      6.43026  eV     2   --> G_4            
     e( 67 - 68) =      6.87814  eV     2   --> G_3            
     e( 67 - 68) =      6.87814  eV     2   --> G_4            
     e( 69 - 70) =      7.38388  eV     2   --> G_3            
     e( 69 - 70) =      7.38388  eV     2   --> G_4            
     e( 71 - 72) =      7.70361  eV     2   --> G_3            
     e( 71 - 72) =      7.70361  eV     2   --> G_4            
     e( 73 - 74) =      7.83872  eV     2   --> G_3            
     e( 73 - 74) =      7.83872  eV     2   --> G_4            
     e( 75 - 76) =      8.38336  eV     2   --> G_3            
     e( 75 - 76) =      8.38336  eV     2   --> G_4            
     e( 77 - 78) =      8.52346  eV     2   --> G_3            
     e( 77 - 78) =      8.52346  eV     2   --> G_4            
     e( 79 - 80) =     10.04661  eV     2   --> G_3            
     e( 79 - 80) =     10.04661  eV     2   --> G_4            
     e( 81 - 82) =     10.27046  eV     2   --> G_3            
     e( 81 - 82) =     10.27046  eV     2   --> G_4            
     e( 83 - 84) =     11.50267  eV     2   --> G_3            
     e( 83 - 84) =     11.50267  eV     2   --> G_4            
     e( 85 - 86) =     11.89202  eV     2   --> G_3            
     e( 85 - 86) =     11.89202  eV     2   --> G_4            
     e( 87 - 88) =     12.63019  eV     2   --> G_3            
     e( 87 - 88) =     12.63019  eV     2   --> G_4            
     e( 89 - 90) =     13.00584  eV     2   --> G_3            
     e( 89 - 90) =     13.00584  eV     2   --> G_4            
     e( 91 - 92) =     15.24203  eV     2   --> G_3            
     e( 91 - 92) =     15.24203  eV     2   --> G_4            
     e( 93 - 94) =     15.99636  eV     2   --> G_3            
     e( 93 - 94) =     15.99636  eV     2   --> G_4            

 **************************************************************************

 **************************************************************************

                    xk=(   0.00000,   0.03716,   0.00931  )

     Band symmetry, C_s (m)     double point group:

     e(  1 -  2) =    -36.34760  eV     2   --> G_3            
     e(  1 -  2) =    -36.34760  eV     2   --> G_4            
     e(  3 -  4) =    -36.24091  eV     2   --> G_3            
     e(  3 -  4) =    -36.24091  eV     2   --> G_4            
     e(  5 -  6) =    -36.02175  eV     2   --> G_3            
     e(  5 -  6) =    -36.02175  eV     2   --> G_4            
     e(  7 -  8) =    -35.90854  eV     2   --> G_3            
     e(  7 -  8) =    -35.90854  eV     2   --> G_4            
     e(  9 - 10) =    -35.84721  eV     2   --> G_3            
     e(  9 - 10) =    -35.84721  eV     2   --> G_4            
     e( 11 - 12) =    -35.63383  eV     2   --> G_3            
     e( 11 - 12) =    -35.63383  eV     2   --> G_4            
     e( 13 - 14) =    -35.53737  eV     2   --> G_3            
     e( 13 - 14) =    -35.53737  eV     2   --> G_4            
     e( 15 - 16) =    -35.37758  eV     2   --> G_3            
     e( 15 - 16) =    -35.37758  eV     2   --> G_4            
     e( 17 - 18) =    -35.13384  eV     2   --> G_3            
     e( 17 - 18) =    -35.13384  eV     2   --> G_4            
     e( 19 - 20) =    -35.07191  eV     2   --> G_3            
     e( 19 - 20) =    -35.07191  eV     2   --> G_4            
     e( 21 - 22) =    -34.99687  eV     2   --> G_3            
     e( 21 - 22) =    -34.99687  eV     2   --> G_4            
     e( 23 - 24) =    -34.94254  eV     2   --> G_3            
     e( 23 - 24) =    -34.94254  eV     2   --> G_4            
     e( 25 - 26) =    -34.83457  eV     2   --> G_3            
     e( 25 - 26) =    -34.83457  eV     2   --> G_4            
     e( 27 - 28) =    -34.77019  eV     2   --> G_3            
     e( 27 - 28) =    -34.77019  eV     2   --> G_4            
     e( 29 - 30) =    -34.63888  eV     2   --> G_3            
     e( 29 - 30) =    -34.63888  eV     2   --> G_4            
     e( 31 - 32) =    -15.14542  eV     2   --> G_3            
     e( 31 - 32) =    -15.14542  eV     2   --> G_4            
     e( 33 - 34) =    -15.12595  eV     2   --> G_3            
     e( 33 - 34) =    -15.12595  eV     2   --> G_4            
     e( 35 - 36) =    -15.10530  eV     2   --> G_3            
     e( 35 - 36) =    -15.10530  eV     2   --> G_4            
     e( 37 - 38) =    -15.07833  eV     2   --> G_3            
     e( 37 - 38) =    -15.07833  eV     2   --> G_4            
     e( 39 - 40) =    -12.31295  eV     2   --> G_3            
     e( 39 - 40) =    -12.31295  eV     2   --> G_4            
     e( 41 - 42) =    -12.29312  eV     2   --> G_3            
     e( 41 - 42) =    -12.29312  eV     2   --> G_4            
     e( 43 - 44) =    -12.27956  eV     2   --> G_3            
     e( 43 - 44) =    -12.27956  eV     2   --> G_4            
     e( 45 - 46) =    -12.27660  eV     2   --> G_3            
     e( 45 - 46) =    -12.27660  eV     2   --> G_4            
     e( 47 - 48) =    -12.25214  eV     2   --> G_3            
     e( 47 - 48) =    -12.25214  eV     2   --> G_4            
     e( 49 - 50) =    -12.23957  eV     2   --> G_3            
     e( 49 - 50) =    -12.23957  eV     2   --> G_4            
     e( 51 - 52) =     -5.46448  eV     2   --> G_3            
     e( 51 - 52) =     -5.46448  eV     2   --> G_4            
     e( 53 - 54) =     -4.68336  eV     2   --> G_3            
     e( 53 - 54) =     -4.68336  eV     2   --> G_4            
     e( 55 - 56) =     -4.38891  eV     2   --> G_3            
     e( 55 - 56) =     -4.38891  eV     2   --> G_4            
     e( 57 - 58) =     -0.76439  eV     2   --> G_3            
     e( 57 - 58) =     -0.76439  eV     2   --> G_4            
     e( 59 - 60) =     -0.04334  eV     2   --> G_3            
     e( 59 - 60) =     -0.04334  eV     2   --> G_4            
     e( 61 - 62) =      6.09979  eV     2   --> G_3            
     e( 61 - 62) =      6.09979  eV     2   --> G_4            
     e( 63 - 64) =      6.21243  eV     2   --> G_3            
     e( 63 - 64) =      6.21243  eV     2   --> G_4            
     e( 65 - 66) =      6.65193  eV     2   --> G_3            
     e( 65 - 66) =      6.65193  eV     2   --> G_4            
     e( 67 - 68) =      7.03520  eV     2   --> G_3            
     e( 67 - 68) =      7.03520  eV     2   --> G_4            
     e( 69 - 70) =      7.43034  eV     2   --> G_3            
     e( 69 - 70) =      7.43034  eV     2   --> G_4            
     e( 71 - 72) =      7.79155  eV     2   --> G_3            
     e( 71 - 72) =      7.79155  eV     2   --> G_4            
     e( 73 - 74) =      7.85634  eV     2   --> G_3            
     e( 73 - 74) =      7.85634  eV     2   --> G_4            
     e( 75 - 76) =      8.45451  eV     2   --> G_3            
     e( 75 - 76) =      8.45451  eV     2   --> G_4            
     e( 77 - 78) =      8.54631  eV     2   --> G_3            
     e( 77 - 78) =      8.54631  eV     2   --> G_4            
     e( 79 - 80) =      9.83720  eV     2   --> G_3            
     e( 79 - 80) =      9.83720  eV     2   --> G_4            
     e( 81 - 82) =     10.23831  eV     2   --> G_3            
     e( 81 - 82) =     10.23831  eV     2   --> G_4            
     e( 83 - 84) =     11.31029  eV     2   --> G_3            
     e( 83 - 84) =     11.31029  eV     2   --> G_4            
     e( 85 - 86) =     11.87392  eV     2   --> G_3            
     e( 85 - 86) =     11.87392  eV     2   --> G_4            
     e( 87 - 88) =     12.54723  eV     2   --> G_3            
     e( 87 - 88) =     12.54723  eV     2   --> G_4            
     e( 89 - 90) =     12.84829  eV     2   --> G_3            
     e( 89 - 90) =     12.84829  eV     2   --> G_4            
     e( 91 - 92) =     15.53866  eV     2   --> G_3            
     e( 91 - 92) =     15.53866  eV     2   --> G_4            
     e( 93 - 94) =     15.97935  eV     2   --> G_3            
     e( 93 - 94) =     15.97935  eV     2   --> G_4            

 **************************************************************************

 **************************************************************************

                    xk=(   0.00000,   0.02787,   0.00698  )

     Band symmetry, C_s (m)     double point group:

     e(  1 -  2) =    -36.30895  eV     2   --> G_3            
     e(  1 -  2) =    -36.30895  eV     2   --> G_4            
[...]
     e( 93 - 94) =     16.26546  eV     2   --> G_4   L_6      

 **************************************************************************

 **************************************************************************

                    xk=(   0.00000,   0.00000,   0.01048  )

     Band symmetry, C_3v (3m)   double point group:

     e(  1 -  2) =    -36.54666  eV     2   --> G_4   L_6      
     e(  3 -  4) =    -36.39594  eV     2   --> G_5   L_4      
     e(  3 -  4) =    -36.39594  eV     2   --> G_6   L_5      
     e(  5 -  6) =    -36.21376  eV     2   --> G_4   L_6      
     e(  7 -  8) =    -36.01014  eV     2   --> G_5   L_4      
     e(  7 -  8) =    -36.01014  eV     2   --> G_6   L_5      
     e(  9 - 10) =    -35.96359  eV     2   --> G_4   L_6      
     e( 11 - 12) =    -35.92707  eV     2   --> G_5   L_4      
     e( 11 - 12) =    -35.92707  eV     2   --> G_6   L_5      
     e( 13 - 14) =    -35.38215  eV     2   --> G_5   L_4      
     e( 13 - 14) =    -35.38215  eV     2   --> G_6   L_5      
     e( 15 - 16) =    -35.31613  eV     2   --> G_4   L_6      
     e( 17 - 18) =    -35.24354  eV     2   --> G_4   L_6      
     e( 19 - 20) =    -35.16810  eV     2   --> G_5   L_4      
     e( 19 - 20) =    -35.16810  eV     2   --> G_6   L_5      
     e( 21 - 22) =    -35.10712  eV     2   --> G_4   L_6      
     e( 23 - 24) =    -34.92521  eV     2   --> G_5   L_4      
     e( 23 - 24) =    -34.92521  eV     2   --> G_6   L_5      
     e( 25 - 26) =    -34.88605  eV     2   --> G_4   L_6      
     e( 27 - 28) =    -34.83437  eV     2   --> G_4   L_6      
     e( 29 - 30) =    -34.56307  eV     2   --> G_4   L_6      
     e( 31 - 32) =    -15.16075  eV     2   --> G_4   L_6      
     e( 33 - 34) =    -15.13576  eV     2   --> G_5   L_4      
     e( 33 - 34) =    -15.13576  eV     2   --> G_6   L_5      
     e( 35 - 36) =    -15.10255  eV     2   --> G_5   L_4      
     e( 35 - 36) =    -15.10255  eV     2   --> G_6   L_5      
     e( 37 - 38) =    -15.09040  eV     2   --> G_4   L_6      
     e( 39 - 40) =    -12.33012  eV     2   --> G_5   L_4      
     e( 39 - 40) =    -12.33012  eV     2   --> G_6   L_5      
     e( 41 - 42) =    -12.29548  eV     2   --> G_4   L_6      
     e( 43 - 44) =    -12.29083  eV     2   --> G_4   L_6      
     e( 45 - 46) =    -12.26653  eV     2   --> G_4   L_6      
     e( 47 - 48) =    -12.26210  eV     2   --> G_5   L_4      
     e( 47 - 48) =    -12.26210  eV     2   --> G_6   L_5      
     e( 49 - 50) =    -12.24869  eV     2   --> G_4   L_6      
     e( 51 - 52) =     -5.59566  eV     2   --> G_4   L_6      
     e( 53 - 54) =     -4.80195  eV     2   --> G_4   L_6      
     e( 55 - 56) =     -4.45013  eV     2   --> G_4   L_6      
     e( 57 - 58) =     -0.74112  eV     2   --> G_4   L_6      
     e( 59 - 60) =      0.13643  eV     2   --> G_4   L_6      
     e( 61 - 62) =      6.46657  eV     2   --> G_4   L_6      
     e( 63 - 64) =      6.84956  eV     2   --> G_4   L_6      
     e( 65 - 66) =      7.33382  eV     2   --> G_4   L_6      
     e( 67 - 68) =      7.51586  eV     2   --> G_5   L_4      
     e( 67 - 68) =      7.51586  eV     2   --> G_6   L_5      
     e( 69 - 70) =      7.51672  eV     2   --> G_4   L_6      
     e( 71 - 72) =      7.80094  eV     2   --> G_4   L_6      
     e( 73 - 74) =      7.82195  eV     2   --> G_5   L_4      
     e( 73 - 74) =      7.82195  eV     2   --> G_6   L_5      
     e( 75 - 76) =      8.22733  eV     2   --> G_5   L_4      
     e( 75 - 76) =      8.22733  eV     2   --> G_6   L_5      
     e( 77 - 78) =      8.80243  eV     2   --> G_4   L_6      
     e( 79 - 80) =      9.20915  eV     2   --> G_4   L_6      
     e( 81 - 82) =     10.41925  eV     2   --> G_4   L_6      
     e( 83 - 84) =     10.66803  eV     2   --> G_4   L_6      
     e( 85 - 86) =     11.63588  eV     2   --> G_5   L_4      
     e( 85 - 86) =     11.63588  eV     2   --> G_6   L_5      
     e( 87 - 88) =     12.33520  eV     2   --> G_4   L_6      
     e( 89 - 90) =     12.89033  eV     2   --> G_5   L_4      
     e( 89 - 90) =     12.89033  eV     2   --> G_6   L_5      
     e( 91 - 92) =     15.99747  eV     2   --> G_4   L_6      
     e( 93 - 94) =     16.27196  eV     2   --> G_4   L_6      

 **************************************************************************

 **************************************************************************

                    xk=(   0.00000,   0.00000,   0.00698  )

     Band symmetry, C_3v (3m)   double point group:

     e(  1 -  2) =    -36.55053  eV     2   --> G_4   L_6      
     e(  3 -  4) =    -36.41784  eV     2   --> G_5   L_4      
     e(  3 -  4) =    -36.41784  eV     2   --> G_6   L_5      
     e(  5 -  6) =    -36.39851  eV     2   --> G_4   L_6      
     e(  7 -  8) =    -36.20964  eV     2   --> G_5   L_4      
     e(  7 -  8) =    -36.20964  eV     2   --> G_6   L_5      
     e(  9 - 10) =    -36.12757  eV     2   --> G_4   L_6      
     e( 11 - 12) =    -35.94528  eV     2   --> G_5   L_4      
     e( 11 - 12) =    -35.94528  eV     2   --> G_6   L_5      
     e( 13 - 14) =    -35.54228  eV     2   --> G_5   L_4      
     e( 13 - 14) =    -35.54228  eV     2   --> G_6   L_5      
     e( 15 - 16) =    -35.35387  eV     2   --> G_4   L_6      
     e( 17 - 18) =    -35.31560  eV     2   --> G_4   L_6      
     e( 19 - 20) =    -35.26658  eV     2   --> G_5   L_4      
     e( 19 - 20) =    -35.26658  eV     2   --> G_6   L_5      
     e( 21 - 22) =    -35.12838  eV     2   --> G_4   L_6      
     e( 23 - 24) =    -34.93485  eV     2   --> G_4   L_6      
     e( 25 - 26) =    -34.92889  eV     2   --> G_5   L_4      
     e( 25 - 26) =    -34.92889  eV     2   --> G_6   L_5      
     e( 27 - 28) =    -34.87438  eV     2   --> G_4   L_6      
     e( 29 - 30) =    -34.56077  eV     2   --> G_4   L_6      
     e( 31 - 32) =    -15.17959  eV     2   --> G_4   L_6      
     e( 33 - 34) =    -15.14247  eV     2   --> G_5   L_4      
     e( 33 - 34) =    -15.14247  eV     2   --> G_6   L_5      
     e( 35 - 36) =    -15.10793  eV     2   --> G_5   L_4      
     e( 35 - 36) =    -15.10793  eV     2   --> G_6   L_5      
     e( 37 - 38) =    -15.09297  eV     2   --> G_4   L_6      
     e( 39 - 40) =    -12.34788  eV     2   --> G_5   L_4      
     e( 39 - 40) =    -12.34788  eV     2   --> G_6   L_5      
     e( 41 - 42) =    -12.30800  eV     2   --> G_4   L_6      
     e( 43 - 44) =    -12.29148  eV     2   --> G_4   L_6      
     e( 45 - 46) =    -12.27051  eV     2   --> G_4   L_6      
     e( 47 - 48) =    -12.26576  eV     2   --> G_5   L_4      
     e( 47 - 48) =    -12.26576  eV     2   --> G_6   L_5      
     e( 49 - 50) =    -12.24972  eV     2   --> G_4   L_6      
     e( 51 - 52) =     -5.59968  eV     2   --> G_4   L_6      
     e( 53 - 54) =     -4.77453  eV     2   --> G_4   L_6      
     e( 55 - 56) =     -4.47629  eV     2   --> G_4   L_6      
     e( 57 - 58) =     -0.72626  eV     2   --> G_4   L_6      
     e( 59 - 60) =      0.12291  eV     2   --> G_4   L_6      
     e( 61 - 62) =      6.48417  eV     2   --> G_4   L_6      
     e( 63 - 64) =      6.82986  eV     2   --> G_4   L_6      
     e( 65 - 66) =      7.35919  eV     2   --> G_4   L_6      
     e( 67 - 68) =      7.48334  eV     2   --> G_4   L_6      
     e( 69 - 70) =      7.51742  eV     2   --> G_5   L_4      
     e( 69 - 70) =      7.51742  eV     2   --> G_6   L_5      
     e( 71 - 72) =      7.81238  eV     2   --> G_4   L_6      
     e( 73 - 74) =      7.81666  eV     2   --> G_5   L_4      
     e( 73 - 74) =      7.81666  eV     2   --> G_6   L_5      
     e( 75 - 76) =      8.23200  eV     2   --> G_5   L_4      
     e( 75 - 76) =      8.23200  eV     2   --> G_6   L_5      
     e( 77 - 78) =      8.81525  eV     2   --> G_4   L_6      
     e( 79 - 80) =      9.19202  eV     2   --> G_4   L_6      
     e( 81 - 82) =     10.42914  eV     2   --> G_4   L_6      
     e( 83 - 84) =     10.65333  eV     2   --> G_4   L_6      
     e( 85 - 86) =     11.62465  eV     2   --> G_5   L_4      
     e( 85 - 86) =     11.62465  eV     2   --> G_6   L_5      
     e( 87 - 88) =     12.34660  eV     2   --> G_4   L_6      
     e( 89 - 90) =     12.90064  eV     2   --> G_5   L_4      
     e( 89 - 90) =     12.90064  eV     2   --> G_6   L_5      
     e( 91 - 92) =     15.99594  eV     2   --> G_4   L_6      
     e( 93 - 94) =     16.28397  eV     2   --> G_4   L_6      

 **************************************************************************

 **************************************************************************

                    xk=(   0.00000,   0.00000,   0.00349  )

     Band symmetry, C_3v (3m)   double point group:

     e(  1 -  2) =    -36.47493  eV     2   --> G_4   L_6      
     e(  3 -  4) =    -36.36882  eV     2   --> G_4   L_6      
     e(  5 -  6) =    -36.28716  eV     2   --> G_5   L_4      
     e(  5 -  6) =    -36.28716  eV     2   --> G_6   L_5      
     e(  7 -  8) =    -36.20645  eV     2   --> G_5   L_4      
     e(  7 -  8) =    -36.20645  eV     2   --> G_6   L_5      
     e(  9 - 10) =    -36.18023  eV     2   --> G_4   L_6      
     e( 11 - 12) =    -36.07876  eV     2   --> G_5   L_4      
     e( 11 - 12) =    -36.07876  eV     2   --> G_6   L_5      
     e( 13 - 14) =    -35.51266  eV     2   --> G_5   L_4      
     e( 13 - 14) =    -35.51266  eV     2   --> G_6   L_5      
     e( 15 - 16) =    -35.25600  eV     2   --> G_4   L_6      
     e( 17 - 18) =    -35.08370  eV     2   --> G_5   L_4      
     e( 17 - 18) =    -35.08370  eV     2   --> G_6   L_5      
     e( 19 - 20) =    -35.03205  eV     2   --> G_4   L_6      
     e( 21 - 22) =    -34.99281  eV     2   --> G_5   L_4      
     e( 21 - 22) =    -34.99281  eV     2   --> G_6   L_5      
     e( 23 - 24) =    -34.99115  eV     2   --> G_4   L_6      
     e( 25 - 26) =    -34.81212  eV     2   --> G_4   L_6      
     e( 27 - 28) =    -34.62569  eV     2   --> G_4   L_6      
     e( 29 - 30) =    -34.59206  eV     2   --> G_4   L_6      
     e( 31 - 32) =    -15.15144  eV     2   --> G_4   L_6      
     e( 33 - 34) =    -15.13117  eV     2   --> G_5   L_4      
     e( 33 - 34) =    -15.13117  eV     2   --> G_6   L_5      
     e( 35 - 36) =    -15.10635  eV     2   --> G_5   L_4      
     e( 35 - 36) =    -15.10635  eV     2   --> G_6   L_5      
     e( 37 - 38) =    -15.09996  eV     2   --> G_4   L_6      
     e( 39 - 40) =    -12.33654  eV     2   --> G_5   L_4      
     e( 39 - 40) =    -12.33654  eV     2   --> G_6   L_5      
     e( 41 - 42) =    -12.29366  eV     2   --> G_4   L_6      
     e( 43 - 44) =    -12.27746  eV     2   --> G_5   L_4      
     e( 43 - 44) =    -12.27746  eV     2   --> G_6   L_5      
     e( 45 - 46) =    -12.27658  eV     2   --> G_4   L_6      
     e( 47 - 48) =    -12.25737  eV     2   --> G_4   L_6      
     e( 49 - 50) =    -12.24844  eV     2   --> G_4   L_6      
     e( 51 - 52) =     -5.60208  eV     2   --> G_4   L_6      
     e( 53 - 54) =     -4.75502  eV     2   --> G_4   L_6      
     e( 55 - 56) =     -4.49501  eV     2   --> G_4   L_6      
     e( 57 - 58) =     -0.71687  eV     2   --> G_4   L_6      
     e( 59 - 60) =      0.11441  eV     2   --> G_4   L_6      
     e( 61 - 62) =      6.49600  eV     2   --> G_4   L_6      
     e( 63 - 64) =      6.81688  eV     2   --> G_4   L_6      
     e( 65 - 66) =      7.38604  eV     2   --> G_4   L_6      
     e( 67 - 68) =      7.45171  eV     2   --> G_4   L_6      
     e( 69 - 70) =      7.51834  eV     2   --> G_5   L_4      
     e( 69 - 70) =      7.51834  eV     2   --> G_6   L_5      
     e( 71 - 72) =      7.81366  eV     2   --> G_5   L_4      
     e( 71 - 72) =      7.81366  eV     2   --> G_6   L_5      
     e( 73 - 74) =      7.81963  eV     2   --> G_4   L_6      
     e( 75 - 76) =      8.23502  eV     2   --> G_5   L_4      
     e( 75 - 76) =      8.23502  eV     2   --> G_6   L_5      
     e( 77 - 78) =      8.82395  eV     2   --> G_4   L_6      
     e( 79 - 80) =      9.18141  eV     2   --> G_4   L_6      
     e( 81 - 82) =     10.43549  eV     2   --> G_4   L_6      
     e( 83 - 84) =     10.64513  eV     2   --> G_4   L_6      
     e( 85 - 86) =     11.61840  eV     2   --> G_5   L_4      
     e( 85 - 86) =     11.61840  eV     2   --> G_6   L_5      
     e( 87 - 88) =     12.35438  eV     2   --> G_4   L_6      
     e( 89 - 90) =     12.90702  eV     2   --> G_5   L_4      
     e( 89 - 90) =     12.90702  eV     2   --> G_6   L_5      
     e( 91 - 92) =     16.00124  eV     2   --> G_4   L_6      
     e( 93 - 94) =     16.29552  eV     2   --> G_4   L_6      

 **************************************************************************

 **************************************************************************

                    xk=(   0.00000,   0.00000,   0.00000  )

     double point group D_3d (-3m) 
     there are 12 classes and  6 irreducible representations
     the character table:

       E     -E    2C3   -2C3  3C2'  -3C2' i     -i    2S6   -2S6  3s_v  -3s_v
                                                                              
G_4+   2.00 -2.00  1.00 -1.00  0.00  0.00  2.00 -2.00  1.00 -1.00  0.00  0.00
G_5+   1.00 -1.00 -1.00  1.00  0.00  0.00  1.00 -1.00 -1.00  1.00  0.00  0.00
G_6+   1.00 -1.00 -1.00  1.00  0.00  0.00  1.00 -1.00 -1.00  1.00  0.00  0.00
G_4-   2.00 -2.00  1.00 -1.00  0.00  0.00 -2.00  2.00 -1.00  1.00  0.00  0.00
G_5-   1.00 -1.00 -1.00  1.00  0.00  0.00 -1.00  1.00  1.00 -1.00  0.00  0.00
G_6-   1.00 -1.00 -1.00  1.00  0.00  0.00 -1.00  1.00  1.00 -1.00  0.00  0.00

     imaginary part

       E     -E    2C3   -2C3  3C2'  -3C2' i     -i    2S6   -2S6  3s_v  -3s_v
                                                                              
G_4+   0.00  0.00  0.00  0.00  0.00  0.00  0.00  0.00  0.00  0.00  0.00  0.00
G_5+   0.00  0.00  0.00  0.00  1.00 -1.00  0.00  0.00  0.00  0.00  1.00 -1.00
G_6+   0.00  0.00  0.00  0.00 -1.00  1.00  0.00  0.00  0.00  0.00 -1.00  1.00
G_4-   0.00  0.00  0.00  0.00  0.00  0.00  0.00  0.00  0.00  0.00  0.00  0.00
G_5-   0.00  0.00  0.00  0.00  1.00 -1.00  0.00  0.00  0.00  0.00 -1.00  1.00
G_6-   0.00  0.00  0.00  0.00 -1.00  1.00  0.00  0.00  0.00  0.00  1.00 -1.00

     the symmetry operations in each class and the name of the first element:

     E             1
                                                                 
     -E           -1
                                                                 
     2C3           3    4
                                                                 
     -2C3         -3   -4
                                                                 
     3C2'          2   -5   -6
                                                                 
     3C2'          5    6   -2
                                                                 
     i             7
                                                                 
     -i           -7
                                                                 
     2S6           9   10
                                                                 
     -2S6         -9  -10
                                                                 
     3s_v          8  -11  -12
                                                                 
     3s_v         11   12   -8
                                                                 

     Band symmetry, D_3d (-3m)  double point group:

     e(  1 -  2) =    -36.35125  eV     2   --> G_4-  L_6-     
     e(  3 -  4) =    -36.30958  eV     2   --> G_4+  L_6+     
     e(  5 -  6) =    -36.16345  eV     2   --> G_5+  L_4+     
     e(  5 -  6) =    -36.16345  eV     2   --> G_6+  L_5+     
     e(  7 -  8) =    -36.14732  eV     2   --> G_5-  L_4-     
     e(  7 -  8) =    -36.14732  eV     2   --> G_6-  L_5-     
     e(  9 - 10) =    -35.89718  eV     2   --> G_4+  L_6+     
     e( 11 - 12) =    -35.89392  eV     2   --> G_5+  L_4+     
     e( 11 - 12) =    -35.89392  eV     2   --> G_6+  L_5+     
     e( 13 - 14) =    -35.06311  eV     2   --> G_5+  L_4+     
     e( 13 - 14) =    -35.06311  eV     2   --> G_6+  L_5+     
     e( 15 - 16) =    -35.03273  eV     2   --> G_4+  L_6+     
     e( 17 - 18) =    -34.97710  eV     2   --> G_5-  L_4-     
     e( 17 - 18) =    -34.97710  eV     2   --> G_6-  L_5-     
     e( 19 - 20) =    -34.82099  eV     2   --> G_5+  L_4+     
     e( 19 - 20) =    -34.82099  eV     2   --> G_6+  L_5+     
     e( 21 - 22) =    -34.80179  eV     2   --> G_4-  L_6-     
     e( 23 - 24) =    -34.76215  eV     2   --> G_4+  L_6+     
     e( 25 - 26) =    -34.63470  eV     2   --> G_4+  L_6+     
     e( 27 - 28) =    -34.52694  eV     2   --> G_4-  L_6-     
     e( 29 - 30) =    -34.50349  eV     2   --> G_4+  L_6+     
     e( 31 - 32) =    -15.14341  eV     2   --> G_4+  L_6+     
     e( 33 - 34) =    -15.10431  eV     2   --> G_5+  L_4+     
     e( 33 - 34) =    -15.10431  eV     2   --> G_6+  L_5+     
     e( 35 - 36) =    -15.09393  eV     2   --> G_5-  L_4-     
     e( 35 - 36) =    -15.09393  eV     2   --> G_6-  L_5-     
     e( 37 - 38) =    -15.06439  eV     2   --> G_4-  L_6-     
     e( 39 - 40) =    -12.32658  eV     2   --> G_5+  L_4+     
     e( 39 - 40) =    -12.32658  eV     2   --> G_6+  L_5+     
     e( 41 - 42) =    -12.27446  eV     2   --> G_4+  L_6+     
     e( 43 - 44) =    -12.27184  eV     2   --> G_4-  L_6-     
     e( 45 - 46) =    -12.24861  eV     2   --> G_5-  L_4-     
     e( 45 - 46) =    -12.24861  eV     2   --> G_6-  L_5-     
     e( 47 - 48) =    -12.24665  eV     2   --> G_4+  L_6+     
     e( 49 - 50) =    -12.22141  eV     2   --> G_4-  L_6-     
     e( 51 - 52) =     -5.60289  eV     2   --> G_4+  L_6+     
     e( 53 - 54) =     -4.74777  eV     2   --> G_4-  L_6-     
     e( 55 - 56) =     -4.50198  eV     2   --> G_4+  L_6+     
     e( 57 - 58) =     -0.71356  eV     2   --> G_4-  L_6-     
     e( 59 - 60) =      0.11149  eV     2   --> G_4+  L_6+     
     e( 61 - 62) =      6.50026  eV     2   --> G_4-  L_6-     
     e( 63 - 64) =      6.81243  eV     2   --> G_4+  L_6+     
     e( 65 - 66) =      7.40599  eV     2   --> G_4-  L_6-     
     e( 67 - 68) =      7.43046  eV     2   --> G_4+  L_6+     
     e( 69 - 70) =      7.51875  eV     2   --> G_5-  L_4-     
     e( 69 - 70) =      7.51875  eV     2   --> G_6-  L_5-     
     e( 71 - 72) =      7.81280  eV     2   --> G_5+  L_4+     
     e( 71 - 72) =      7.81280  eV     2   --> G_6+  L_5+     
     e( 73 - 74) =      7.82227  eV     2   --> G_4-  L_6-     
     e( 75 - 76) =      8.23631  eV     2   --> G_5-  L_4-     
     e( 75 - 76) =      8.23631  eV     2   --> G_6-  L_5-     
     e( 77 - 78) =      8.82700  eV     2   --> G_4+  L_6+     
     e( 79 - 80) =      9.17815  eV     2   --> G_4-  L_6-     
     e( 81 - 82) =     10.43771  eV     2   --> G_4-  L_6-     
     e( 83 - 84) =     10.64296  eV     2   --> G_4+  L_6+     
     e( 85 - 86) =     11.61766  eV     2   --> G_5+  L_4+     
     e( 85 - 86) =     11.61766  eV     2   --> G_6+  L_5+     
     e( 87 - 88) =     12.35709  eV     2   --> G_4-  L_6-     
     e( 89 - 90) =     12.90953  eV     2   --> G_5-  L_4-     
     e( 89 - 90) =     12.90953  eV     2   --> G_6-  L_5-     
     e( 91 - 92) =     16.00645  eV     2   --> G_4+  L_6+     
     e( 93 - 94) =     16.30039  eV     2   --> G_4+  L_6+     

 **************************************************************************
 
     BANDS        :   4m11.80s CPU   4m37.21s WALL

 
   This run was terminated on:  12:18:12   2May2022            

=------------------------------------------------------------------------------=
   JOB DONE.
=------------------------------------------------------------------------------=
