
     Program PWSCF v.6.4 starts on  2May2022 at 12: 9:53 

     This program is part of the open-source Quantum ESPRESSO suite
     for quantum simulation of materials; please cite
         "P. Giannozzi et al., J. Phys.:Condens. Matter 21 395502 (2009);
         "P. Giannozzi et al., J. Phys.:Condens. Matter 29 465901 (2017);
          URL http://www.quantum-espresso.org", 
     in publications or presentations arising from this work. More details at
     http://www.quantum-espresso.org/quote

     Parallel version (MPI), running on     8 processors

     MPI processes distributed on     1 nodes
     R & G space division:  proc/nbgrp/npool/nimage =       8
     Waiting for input...
     Reading input from standard input

     Current dimensions of program PWSCF are:
     Max number of different atomic species (ntypx) = 10
     Max number of k-points (npk) =  40000
     Max angular momentum in pseudopotentials (lmaxx) =  3

     Subspace diagonalization in iterative solution of the eigenvalue problem:
     one sub-group per band group will be used
     scalapack distributed-memory algorithm (size of sub-group:  2*  2 procs)

 
     Parallelization info
     --------------------
     sticks:   dense  smooth     PW     G-vecs:    dense   smooth      PW
     Min         187     187     59                 3079     3079     546
     Max         188     188     60                 3080     3080     548
     Sum        1501    1501    477                24637    24637    4375
 


     bravais-lattice index     =            0
     lattice parameter (alat)  =       1.8897  a.u.
     unit-cell volume          =     957.5208 (a.u.)^3
     number of atoms/cell      =            5
     number of atomic types    =            2
     number of electrons       =        78.00
     number of Kohn-Sham states=           94
     kinetic-energy cutoff     =      33.0900  Ry
     charge density cutoff     =     132.3600  Ry
     convergence threshold     =      1.0E-08
     mixing beta               =       0.3000
     number of iterations used =            8  plain     mixing
     Exchange-correlation      = PBE ( 1  4  3  4 0 0)
     Non magnetic calculation with spin-orbit


     celldm(1)=   1.889726  celldm(2)=   0.000000  celldm(3)=   0.000000
     celldm(4)=   0.000000  celldm(5)=   0.000000  celldm(6)=   0.000000

     crystal axes: (cart. coord. in units of alat)
               a(1) = (   2.071500   1.195981   9.545333 )  
               a(2) = (  -2.071500   1.195981   9.545333 )  
               a(3) = (   0.000000  -2.391962   9.545333 )  

     reciprocal axes: (cart. coord. in units 2 pi/alat)
               b(1) = (  0.241371  0.139356  0.034921 )  
               b(2) = ( -0.241371  0.139356  0.034921 )  
               b(3) = (  0.000000 -0.278711  0.034921 )  


     PseudoPot. # 1 for Bi read from file:
     /scratch/irmik/jobs/580594/pseudo/Bi.upf
     MD5 check sum: 260977096fd1df4b879f04c556a28fcb
     Pseudo is Norm-conserving + core correction, Zval = 15.0
     Generated using ONCVPSP code by D. R. Hamann
     Using radial grid of 1562 points, 10 beta functions with: 
                l(1) =   0
                l(2) =   0
                l(3) =   1
                l(4) =   1
                l(5) =   1
                l(6) =   1
                l(7) =   2
                l(8) =   2
                l(9) =   2
               l(10) =   2

     PseudoPot. # 2 for Se read from file:
     /scratch/irmik/jobs/580594/pseudo/Se.upf
     MD5 check sum: cb2cefba1335ec1a0ef320de5a6fd81a
     Pseudo is Norm-conserving + core correction, Zval = 16.0
     Generated using ONCVPSP code by D. R. Hamann
     Using radial grid of 1214 points, 10 beta functions with: 
                l(1) =   0
                l(2) =   0
                l(3) =   1
                l(4) =   1
                l(5) =   1
                l(6) =   1
                l(7) =   2
                l(8) =   2
                l(9) =   2
               l(10) =   2

     atomic species   valence    mass     pseudopotential
        Bi            15.00   209.00000     Bi( 1.00)
        Se            16.00    79.00000     Se( 1.00)

     12 Sym. Ops., with inversion, found



   Cartesian axes

     site n.     atom                  positions (alat units)
         1           Bi  tau(   1) = (  -0.0000000  -0.0000000  17.2245540  )
         2           Bi  tau(   2) = (  -0.0000000   0.0000000  11.4114460  )
         3           Se  tau(   3) = (   0.0000000   0.0000000   0.0000000  )
         4           Se  tau(   4) = (   0.0000000   0.0000000  22.5794860  )
         5           Se  tau(   5) = (   0.0000000   0.0000000   6.0565140  )

     number of k points=    19  Marzari-Vanderbilt smearing, width (Ry)=  0.0001
                       cart. coord. in units 2pi/alat
        k(    1) = (   0.0000000   0.0000000   0.0000000), wk =   0.0080000
        k(    2) = (   0.0000000  -0.0557422   0.0069842), wk =   0.0480000
        k(    3) = (   0.0000000  -0.1114845   0.0139684), wk =   0.0480000
        k(    4) = (  -0.0482742  -0.0278711   0.0139684), wk =   0.0480000
        k(    5) = (  -0.0482742  -0.0836134   0.0209526), wk =   0.0960000
        k(    6) = (  -0.0482742   0.1393556  -0.0069842), wk =   0.0960000
        k(    7) = (  -0.0482742   0.0836134   0.0000000), wk =   0.0480000
        k(    8) = (  -0.0965484  -0.0557422   0.0279369), wk =   0.0480000
        k(    9) = (  -0.0965484   0.1672267   0.0000000), wk =   0.0480000
        k(   10) = (   0.0000000   0.0000000   0.0209526), wk =   0.0160000
        k(   11) = (   0.0000000  -0.0557422   0.0279369), wk =   0.0480000
        k(   12) = (   0.0000000   0.1672267   0.0000000), wk =   0.0480000
        k(   13) = (   0.0000000   0.1114845   0.0069842), wk =   0.0480000
        k(   14) = (  -0.0482742  -0.0278711   0.0349211), wk =   0.0480000
        k(   15) = (  -0.0482742   0.1950978   0.0069842), wk =   0.0960000
        k(   16) = (  -0.0482742   0.1393556   0.0139684), wk =   0.0960000
        k(   17) = (   0.1448226   0.0836134  -0.0209526), wk =   0.0480000
        k(   18) = (   0.0000000   0.0000000   0.0419053), wk =   0.0160000
        k(   19) = (   0.0000000   0.2229690   0.0139684), wk =   0.0480000

     Dense  grid:    24637 G-vectors     FFT dimensions: (  72,  72,  72)

     Estimated max dynamical RAM per process >      48.15 MB

     Estimated total dynamical RAM >     385.21 MB

     Check: negative core charge=   -0.000002

     Initial potential from superposition of free atoms

     starting charge   77.99761, renormalised to   78.00000

     negative rho (up, down):  8.875E-03 0.000E+00
     Starting wfcs are   90 randomized atomic wfcs +    4 random wfcs

     total cpu time spent up to now is        4.0 secs

     Self-consistent Calculation

     iteration #  1     ecut=    33.09 Ry     beta= 0.30
     Davidson diagonalization with overlap
     ethr =  1.00E-02,  avg # of iterations =  6.8

     negative rho (up, down):  5.580E-03 0.000E+00

     total cpu time spent up to now is       14.8 secs

     total energy              =   -1023.65281140 Ry
     Harris-Foulkes estimate   =   -1026.28986246 Ry
     estimated scf accuracy    <       7.10575307 Ry

     iteration #  2     ecut=    33.09 Ry     beta= 0.30
     Davidson diagonalization with overlap
     ethr =  9.11E-03,  avg # of iterations =  1.0

     negative rho (up, down):  1.730E-03 0.000E+00

     total cpu time spent up to now is       21.7 secs

     total energy              =   -1022.01947267 Ry
     Harris-Foulkes estimate   =   -1023.81587796 Ry
     estimated scf accuracy    <       2.99512507 Ry

     iteration #  3     ecut=    33.09 Ry     beta= 0.30
     Davidson diagonalization with overlap
     ethr =  3.84E-03,  avg # of iterations =  2.1

     negative rho (up, down):  5.906E-04 0.000E+00

     total cpu time spent up to now is       29.8 secs

     total energy              =   -1022.00421496 Ry
     Harris-Foulkes estimate   =   -1022.53764548 Ry
     estimated scf accuracy    <       2.19448260 Ry

     iteration #  4     ecut=    33.09 Ry     beta= 0.30
     Davidson diagonalization with overlap
     ethr =  2.81E-03,  avg # of iterations =  1.1

     negative rho (up, down):  1.288E-04 0.000E+00

     total cpu time spent up to now is       36.8 secs

     total energy              =   -1022.18141664 Ry
     Harris-Foulkes estimate   =   -1022.20813735 Ry
     estimated scf accuracy    <       0.06636899 Ry

     iteration #  5     ecut=    33.09 Ry     beta= 0.30
     Davidson diagonalization with overlap
     ethr =  8.51E-05,  avg # of iterations =  4.6

     negative rho (up, down):  9.500E-06 0.000E+00

     total cpu time spent up to now is       46.1 secs

     total energy              =   -1022.18902143 Ry
     Harris-Foulkes estimate   =   -1022.19170615 Ry
     estimated scf accuracy    <       0.01665272 Ry

     iteration #  6     ecut=    33.09 Ry     beta= 0.30
     Davidson diagonalization with overlap
     ethr =  2.13E-05,  avg # of iterations =  1.8

     negative rho (up, down):  3.219E-06 0.000E+00

     total cpu time spent up to now is       53.3 secs

     total energy              =   -1022.18893510 Ry
     Harris-Foulkes estimate   =   -1022.18992349 Ry
     estimated scf accuracy    <       0.00363754 Ry

     iteration #  7     ecut=    33.09 Ry     beta= 0.30
     Davidson diagonalization with overlap
     ethr =  4.66E-06,  avg # of iterations =  2.3

     total cpu time spent up to now is       61.0 secs

     total energy              =   -1022.18947086 Ry
     Harris-Foulkes estimate   =   -1022.18947421 Ry
     estimated scf accuracy    <       0.00027703 Ry

     iteration #  8     ecut=    33.09 Ry     beta= 0.30
     Davidson diagonalization with overlap
     ethr =  3.55E-07,  avg # of iterations =  2.1

     total cpu time spent up to now is       68.6 secs

     total energy              =   -1022.18948152 Ry
     Harris-Foulkes estimate   =   -1022.18949105 Ry
     estimated scf accuracy    <       0.00005123 Ry

     iteration #  9     ecut=    33.09 Ry     beta= 0.30
     Davidson diagonalization with overlap
     ethr =  6.57E-08,  avg # of iterations =  2.0

     total cpu time spent up to now is       76.4 secs

     total energy              =   -1022.18948229 Ry
     Harris-Foulkes estimate   =   -1022.18949508 Ry
     estimated scf accuracy    <       0.00003361 Ry

     iteration # 10     ecut=    33.09 Ry     beta= 0.30
     Davidson diagonalization with overlap
     ethr =  4.31E-08,  avg # of iterations =  2.0

     total cpu time spent up to now is       84.1 secs

     total energy              =   -1022.18948824 Ry
     Harris-Foulkes estimate   =   -1022.18948995 Ry
     estimated scf accuracy    <       0.00000358 Ry

     iteration # 11     ecut=    33.09 Ry     beta= 0.30
     Davidson diagonalization with overlap
     ethr =  4.59E-09,  avg # of iterations =  2.0

     total cpu time spent up to now is       91.8 secs

     total energy              =   -1022.18948906 Ry
     Harris-Foulkes estimate   =   -1022.18948947 Ry
     estimated scf accuracy    <       0.00000117 Ry

     iteration # 12     ecut=    33.09 Ry     beta= 0.30
     Davidson diagonalization with overlap
     ethr =  1.50E-09,  avg # of iterations =  2.0

     total cpu time spent up to now is       99.3 secs

     End of self-consistent calculation

          k = 0.0000 0.0000 0.0000 (  3063 PWs)   bands (ev):

   -36.3511 -36.3511 -36.3100 -36.3100 -36.1637 -36.1637 -36.1472 -36.1472
   -35.8972 -35.8972 -35.8941 -35.8941 -35.0633 -35.0633 -35.0330 -35.0330
   -34.9770 -34.9770 -34.8211 -34.8211 -34.8016 -34.8016 -34.7621 -34.7621
   -34.6351 -34.6351 -34.5268 -34.5268 -34.5036 -34.5036 -15.1434 -15.1434
   -15.1043 -15.1043 -15.0939 -15.0939 -15.0644 -15.0644 -12.3266 -12.3266
   -12.2745 -12.2745 -12.2718 -12.2718 -12.2486 -12.2486 -12.2466 -12.2466
   -12.2214 -12.2214  -5.6030  -5.6030  -4.7477  -4.7477  -4.5021  -4.5021
    -0.7135  -0.7135   0.1115   0.1115   6.5001   6.5001   6.8125   6.8125
     7.4058   7.4058   7.4305   7.4305   7.5185   7.5185   7.8128   7.8128
     7.8222   7.8222   8.2363   8.2363   8.8270   8.8270   9.1782   9.1782
    10.4377  10.4377  10.6430  10.6430  11.6177  11.6177  12.3571  12.3571
    12.9095  12.9095  16.0064  16.0064  16.3004  16.3004

          k = 0.0000-0.0557 0.0070 (  3066 PWs)   bands (ev):

   -36.4108 -36.4108 -36.2511 -36.2511 -36.1483 -36.1483 -36.0146 -36.0146
   -35.7036 -35.7036 -35.5805 -35.5805 -35.4418 -35.4418 -35.3681 -35.3681
   -35.2763 -35.2763 -35.1396 -35.1396 -35.0707 -35.0707 -34.8897 -34.8897
   -34.7185 -34.7185 -34.6499 -34.6499 -34.4868 -34.4868 -15.1486 -15.1486
   -15.1286 -15.1286 -15.0953 -15.0953 -15.0788 -15.0788 -12.3078 -12.3078
   -12.3054 -12.3054 -12.2775 -12.2775 -12.2725 -12.2725 -12.2532 -12.2532
   -12.2338 -12.2338  -5.3072  -5.3072  -4.5471  -4.5471  -4.3205  -4.3205
    -0.8269  -0.8269  -0.2302  -0.2302   5.5726   5.5726   5.8652   5.8652
     6.2126   6.2126   6.7598   6.7598   7.2108   7.2108   7.7698   7.7698
     7.8620   7.8620   8.1618   8.1618   8.5741   8.5741  10.0426  10.0426
    10.5513  10.5513  11.7093  11.7093  11.8933  11.8933  12.6038  12.6038
    13.1417  13.1417  14.8731  14.8731  16.1272  16.1272

          k = 0.0000-0.1115 0.0140 (  3073 PWs)   bands (ev):

   -36.5307 -36.5307 -36.3219 -36.3219 -36.2051 -36.2051 -36.0993 -36.0993
   -35.8893 -35.8893 -35.8487 -35.8487 -35.6166 -35.6166 -35.4829 -35.4829
   -35.3180 -35.3180 -35.2427 -35.2427 -35.1344 -35.1344 -34.9829 -34.9829
   -34.9066 -34.9066 -34.7683 -34.7683 -34.6409 -34.6409 -15.1634 -15.1634
   -15.1424 -15.1424 -15.1085 -15.1085 -15.0940 -15.0940 -12.3303 -12.3303
   -12.3137 -12.3137 -12.2945 -12.2945 -12.2831 -12.2831 -12.2566 -12.2566
   -12.2409 -12.2409  -4.6089  -4.6089  -4.1991  -4.1991  -4.0299  -4.0299
    -1.2640  -1.2640  -0.8463  -0.8463   4.0822   4.0822   5.4898   5.4898
     5.7223   5.7223   6.2184   6.2184   6.4012   6.4012   6.8452   6.8452
     7.3803   7.3803   7.9791   7.9791   8.6519   8.6519   9.8756   9.8756
    11.3706  11.3706  11.7254  11.7254  12.3840  12.3840  13.2886  13.2886
    13.8642  13.8642  14.0848  14.0848  16.0430  16.0430

          k =-0.0483-0.0279 0.0140 (  3068 PWs)   bands (ev):

   -36.4152 -36.4152 -36.2213 -36.2213 -36.0642 -36.0642 -35.9876 -35.9876
   -35.8469 -35.8469 -35.5826 -35.5826 -35.5004 -35.5004 -35.3210 -35.3210
   -35.2738 -35.2738 -35.1582 -35.1582 -35.0954 -35.0954 -34.9052 -34.9052
   -34.7716 -34.7716 -34.7306 -34.7306 -34.6073 -34.6073 -15.1504 -15.1504
   -15.1344 -15.1344 -15.0966 -15.0966 -15.0806 -15.0806 -12.3153 -12.3153
   -12.3030 -12.3030 -12.2834 -12.2834 -12.2690 -12.2690 -12.2543 -12.2543
   -12.2375 -12.2375  -5.2991  -5.2991  -4.5960  -4.5960  -4.2773  -4.2773
    -0.8197  -0.8197  -0.2439  -0.2439   5.4719   5.4719   5.9803   5.9803
     6.3154   6.3154   6.7260   6.7260   7.3143   7.3143   7.6034   7.6034
     7.8012   7.8012   8.2292   8.2292   8.4460   8.4460  10.2251  10.2251
    10.4159  10.4159  11.6650  11.6650  11.9438  11.9438  12.7268  12.7268
    13.1330  13.1330  14.9685  14.9685  16.0643  16.0643

          k =-0.0483-0.0836 0.0210 (  3078 PWs)   bands (ev):

   -36.5048 -36.5048 -36.3255 -36.3255 -36.2104 -36.2104 -36.1136 -36.1136
   -35.9955 -35.9955 -35.9112 -35.9112 -35.6394 -35.6394 -35.4926 -35.4926
   -35.4067 -35.4067 -35.2771 -35.2771 -35.1806 -35.1806 -35.1221 -35.1221
   -35.0218 -35.0218 -34.9443 -34.9443 -34.7241 -34.7241 -15.1490 -15.1490
   -15.1420 -15.1420 -15.1288 -15.1288 -15.1181 -15.1181 -12.3168 -12.3168
   -12.3065 -12.3065 -12.2988 -12.2988 -12.2872 -12.2872 -12.2795 -12.2795
   -12.2670 -12.2670  -4.7878  -4.7878  -4.3016  -4.3016  -4.0378  -4.0378
    -1.0282  -1.0282  -0.8290  -0.8290   4.6815   4.6815   5.1359   5.1359
     5.6099   5.6099   6.0947   6.0947   6.6567   6.6567   6.8940   6.8940
     7.6010   7.6010   8.3714   8.3714   8.4258   8.4258  10.5021  10.5021
    10.7434  10.7434  11.8932  11.8932  12.6754  12.6754  13.0662  13.0662
    13.6262  13.6262  15.2705  15.2705  15.4909  15.4909

          k =-0.0483 0.1394-0.0070 (  3076 PWs)   bands (ev):

   -36.5356 -36.5356 -36.4106 -36.4106 -36.2347 -36.2347 -36.1283 -36.1283
   -36.0067 -36.0067 -35.8629 -35.8629 -35.6495 -35.6495 -35.5105 -35.5105
   -35.3995 -35.3995 -35.3193 -35.3193 -35.2107 -35.2107 -35.0131 -35.0131
   -34.9550 -34.9550 -34.8238 -34.8238 -34.6818 -34.6818 -15.1794 -15.1794
   -15.1409 -15.1409 -15.1171 -15.1171 -15.0940 -15.0940 -12.3384 -12.3384
   -12.3226 -12.3226 -12.3001 -12.3001 -12.2736 -12.2736 -12.2629 -12.2629
   -12.2492 -12.2492  -4.3195  -4.3195  -4.0460  -4.0460  -3.9667  -3.9667
    -1.3644  -1.3644  -1.1422  -1.1422   4.1009   4.1009   4.9617   4.9617
     5.0587   5.0587   5.9200   5.9200   6.5459   6.5459   6.9830   6.9830
     7.1903   7.1903   7.7114   7.7114   8.0589   8.0589  10.9441  10.9441
    11.2832  11.2832  12.2628  12.2628  12.7322  12.7322  13.1320  13.1320
    13.7026  13.7026  15.2138  15.2138  16.2119  16.2119

          k =-0.0483 0.0836 0.0000 (  3069 PWs)   bands (ev):

   -36.3934 -36.3934 -36.2576 -36.2576 -36.1931 -36.1931 -36.0937 -36.0937
   -35.9670 -35.9670 -35.7622 -35.7622 -35.5710 -35.5710 -35.4277 -35.4277
   -35.2308 -35.2308 -35.1610 -35.1610 -35.0273 -35.0273 -34.9514 -34.9514
   -34.8191 -34.8191 -34.7189 -34.7189 -34.6368 -34.6368 -15.1449 -15.1449
   -15.1335 -15.1335 -15.1173 -15.1173 -15.0896 -15.0896 -12.3155 -12.3155
   -12.3077 -12.3077 -12.2910 -12.2910 -12.2770 -12.2770 -12.2614 -12.2614
   -12.2376 -12.2376  -4.8065  -4.8065  -4.1726  -4.1726  -4.1502  -4.1502
    -1.0196  -1.0196  -0.8364  -0.8364   4.6953   4.6953   5.0882   5.0882
     5.7195   5.7195   6.2318   6.2318   6.4875   6.4875   6.6901   6.6901
     7.7932   7.7932   8.2711   8.2711   8.5341   8.5341  10.5111  10.5111
    10.6647  10.6647  11.7646  11.7646  12.7962  12.7962  13.1634  13.1634
    13.6267  13.6267  15.2560  15.2560  15.3488  15.3488

          k =-0.0965-0.0557 0.0279 (  3096 PWs)   bands (ev):

   -36.7234 -36.7234 -36.6800 -36.6800 -36.4900 -36.4900 -36.2874 -36.2874
   -36.1054 -36.1054 -35.9967 -35.9967 -35.8390 -35.8390 -35.7827 -35.7827
   -35.6608 -35.6608 -35.4710 -35.4710 -35.4176 -35.4176 -35.2962 -35.2962
   -35.2177 -35.2177 -35.0814 -35.0814 -34.8776 -34.8776 -15.1824 -15.1824
   -15.1700 -15.1700 -15.1455 -15.1455 -15.1321 -15.1321 -12.3378 -12.3378
   -12.3322 -12.3322 -12.3257 -12.3257 -12.3120 -12.3120 -12.2871 -12.2871
   -12.2724 -12.2724  -4.5986  -4.5986  -4.2199  -4.2199  -4.0223  -4.0223
    -1.2585  -1.2585  -0.8460  -0.8460   4.1242   4.1242   5.2825   5.2825
     5.6744   5.6744   6.0947   6.0947   6.7444   6.7444   7.2296   7.2296
     7.5555   7.5555   7.6692   7.6692   8.0320   8.0320  10.4144  10.4144
    11.5173  11.5173  11.6233  11.6233  12.3344  12.3344  13.0951  13.0951
    13.7849  13.7849  13.9650  13.9650  16.5711  16.5711

          k =-0.0965 0.1672 0.0000 (  3085 PWs)   bands (ev):

   -36.5706 -36.5706 -36.5376 -36.5376 -36.3941 -36.3941 -36.2927 -36.2927
   -36.1192 -36.1192 -36.0056 -36.0056 -35.7199 -35.7199 -35.6238 -35.6238
   -35.5163 -35.5163 -35.3620 -35.3620 -35.2329 -35.2329 -35.1144 -35.1144
   -35.0822 -35.0822 -35.0322 -35.0322 -34.7143 -34.7143 -15.1794 -15.1794
   -15.1677 -15.1677 -15.1281 -15.1281 -15.1055 -15.1055 -12.3367 -12.3367
   -12.3276 -12.3276 -12.3214 -12.3214 -12.2941 -12.2941 -12.2723 -12.2723
   -12.2555 -12.2555  -4.3140  -4.3140  -4.0654  -4.0654  -3.9530  -3.9530
    -1.3691  -1.3691  -1.1426  -1.1426   4.3222   4.3222   5.0012   5.0012
     5.2198   5.2198   5.4744   5.4744   6.0135   6.0135   6.3948   6.3948
     7.9461   7.9461   8.3645   8.3645   8.6615   8.6615  10.1306  10.1306
    10.8759  10.8759  11.7436  11.7436  12.9880  12.9880  13.5018  13.5018
    14.0936  14.0936  14.8514  14.8514  17.2616  17.2616

          k = 0.0000 0.0000 0.0210 (  3063 PWs)   bands (ev):

   -36.4206 -36.4206 -36.0384 -36.0384 -35.9977 -35.9977 -35.9104 -35.9104
   -35.7022 -35.7022 -35.6509 -35.6509 -35.5963 -35.5963 -35.2014 -35.2014
   -35.0919 -35.0919 -34.9954 -34.9954 -34.9217 -34.9217 -34.7514 -34.7514
   -34.6489 -34.6489 -34.5968 -34.5968 -34.4892 -34.4892 -15.1446 -15.1446
   -15.1057 -15.1057 -15.0934 -15.0934 -15.0675 -15.0675 -12.2989 -12.2989
   -12.2945 -12.2945 -12.2734 -12.2734 -12.2632 -12.2632 -12.2362 -12.2362
   -12.2345 -12.2345  -5.5751  -5.5751  -4.9018  -4.9018  -4.3577  -4.3577
    -0.8072  -0.8072   0.1958   0.1958   6.3981   6.3981   6.9296   6.9296
     7.2703   7.2703   7.5086   7.5086   7.6191   7.6191   7.7468   7.7468
     7.8490   7.8490   8.2031   8.2031   8.7415   8.7415   9.2883   9.2883
    10.3693  10.3693  10.7333  10.7333  11.6815  11.6815  12.2771  12.2771
    12.8392  12.8392  15.9947  15.9947  16.2787  16.2787

          k = 0.0000-0.0557 0.0279 (  3074 PWs)   bands (ev):

   -36.5021 -36.5021 -36.4585 -36.4585 -36.2419 -36.2419 -36.0839 -36.0839
   -35.7932 -35.7932 -35.7281 -35.7281 -35.5127 -35.5127 -35.4621 -35.4621
   -35.4057 -35.4057 -35.3237 -35.3237 -35.0738 -35.0738 -35.0170 -35.0170
   -34.8159 -34.8159 -34.6876 -34.6876 -34.5239 -34.5239 -15.1536 -15.1536
   -15.1364 -15.1364 -15.1123 -15.1123 -15.0951 -15.0951 -12.3198 -12.3198
   -12.2955 -12.2955 -12.2932 -12.2932 -12.2823 -12.2823 -12.2662 -12.2662
   -12.2497 -12.2497  -5.2663  -5.2663  -4.7280  -4.7280  -4.1626  -4.1626
    -0.9065  -0.9065  -0.1670  -0.1670   5.4838   5.4838   5.9455   5.9455
     6.2780   6.2780   6.8268   6.8268   7.0659   7.0659   7.6207   7.6207
     7.9949   7.9949   8.1379   8.1379   8.7333   8.7333   9.7704   9.7704
    10.7918  10.7918  11.5365  11.5365  12.0247  12.0247  12.5861  12.5861
    13.1176  13.1176  14.9887  14.9887  16.3589  16.3589

          k = 0.0000 0.1672 0.0000 (  3074 PWs)   bands (ev):

   -36.4567 -36.4567 -36.4030 -36.4030 -36.2470 -36.2470 -36.0101 -36.0101
   -35.9196 -35.9196 -35.7690 -35.7690 -35.5365 -35.5365 -35.4814 -35.4814
   -35.3872 -35.3872 -35.2685 -35.2685 -35.1811 -35.1811 -35.1079 -35.1079
   -34.9654 -34.9654 -34.8046 -34.8046 -34.6867 -34.6867 -15.1559 -15.1559
   -15.1418 -15.1418 -15.1142 -15.1142 -15.1044 -15.1044 -12.3256 -12.3256
   -12.3106 -12.3106 -12.2935 -12.2935 -12.2819 -12.2819 -12.2631 -12.2631
   -12.2541 -12.2541  -4.5821  -4.5821  -4.2737  -4.2737  -3.9830  -3.9830
    -1.2330  -1.2330  -0.8793  -0.8793   4.2251   4.2251   5.2504   5.2504
     5.6170   5.6170   6.2346   6.2346   6.3273   6.3273   6.8676   6.8676
     7.7574   7.7574   8.0692   8.0692   8.6096   8.6096   9.8252   9.8252
    11.1452  11.1452  11.7090  11.7090  12.2116  12.2116  13.3891  13.3891
    14.0439  14.0439  14.2098  14.2098  15.8864  15.8864

          k = 0.0000 0.1115 0.0070 (  3084 PWs)   bands (ev):

   -36.7039 -36.7039 -36.5209 -36.5209 -36.3121 -36.3121 -36.1542 -36.1542
   -35.9743 -35.9743 -35.9030 -35.9030 -35.7486 -35.7486 -35.6412 -35.6412
   -35.4405 -35.4405 -35.3439 -35.3439 -35.2690 -35.2690 -35.1835 -35.1835
   -35.0002 -35.0002 -34.8924 -34.8924 -34.7665 -34.7665 -15.1668 -15.1668
   -15.1439 -15.1439 -15.1369 -15.1369 -15.1181 -15.1181 -12.3282 -12.3282
   -12.3194 -12.3194 -12.3039 -12.3039 -12.2919 -12.2919 -12.2772 -12.2772
   -12.2690 -12.2690  -4.6169  -4.6169  -4.1389  -4.1389  -4.0828  -4.0828
    -1.2774  -1.2774  -0.8276  -0.8276   4.0362   4.0362   5.3774   5.3774
     5.9602   5.9602   6.1333   6.1333   6.5769   6.5769   6.9381   6.9381
     7.3594   7.3594   7.7931   7.7931   8.2272   8.2272  10.2874  10.2874
    11.5970  11.5970  11.6591  11.6591  12.4922  12.4922  13.0864  13.0864
    13.7334  13.7334  13.8965  13.8965  16.4764  16.4764

          k =-0.0483-0.0279 0.0349 (  3073 PWs)   bands (ev):

   -36.4449 -36.4449 -36.2775 -36.2775 -36.1980 -36.1980 -35.9810 -35.9810
   -35.8389 -35.8389 -35.7098 -35.7098 -35.5779 -35.5779 -35.5038 -35.5038
   -35.3020 -35.3020 -35.1563 -35.1563 -35.0841 -35.0841 -34.9368 -34.9368
   -34.8549 -34.8549 -34.7328 -34.7328 -34.7025 -34.7025 -15.1613 -15.1613
   -15.1484 -15.1484 -15.0907 -15.0907 -15.0862 -15.0862 -12.3215 -12.3215
   -12.3077 -12.3077 -12.2990 -12.2990 -12.2710 -12.2710 -12.2553 -12.2553
   -12.2383 -12.2383  -5.2486  -5.2486  -4.7739  -4.7739  -4.1305  -4.1305
    -0.8983  -0.8983  -0.1860  -0.1860   5.3824   5.3824   6.0579   6.0579
     6.4891   6.4891   6.7685   6.7685   7.1522   7.1522   7.4750   7.4750
     7.8764   7.8764   8.0827   8.0827   8.6389   8.6389   9.9100   9.9100
    10.7359  10.7359  11.4897  11.4897  12.0935  12.0935  12.7732  12.7732
    13.1016  13.1016  15.1653  15.1653  16.2072  16.2072

          k =-0.0483 0.1951 0.0070 (  3068 PWs)   bands (ev):

   -36.4797 -36.4797 -36.2666 -36.2666 -36.1097 -36.1097 -35.9736 -35.9736
   -35.8950 -35.8950 -35.7692 -35.7692 -35.5306 -35.5306 -35.4189 -35.4189
   -35.2862 -35.2862 -35.1840 -35.1840 -35.1276 -35.1276 -34.9832 -34.9832
   -34.8098 -34.8098 -34.7459 -34.7459 -34.6391 -34.6391 -15.1454 -15.1454
   -15.1220 -15.1220 -15.1180 -15.1180 -15.1009 -15.1009 -12.3128 -12.3128
   -12.3026 -12.3026 -12.2846 -12.2846 -12.2785 -12.2785 -12.2649 -12.2649
   -12.2489 -12.2489  -4.7498  -4.7498  -4.4076  -4.4076  -3.9659  -3.9659
    -1.0408  -1.0408  -0.8179  -0.8179   4.6884   4.6884   5.0954   5.0954
     5.5888   5.5888   6.1062   6.1062   6.4642   6.4642   7.3707   7.3707
     7.6725   7.6725   8.0352   8.0352   8.3389   8.3389  10.6025  10.6025
    10.9192  10.9192  11.9446  11.9446  12.4733  12.4733  13.0401  13.0401
    13.5559  13.5559  15.4414  15.4414  15.6672  15.6672

          k =-0.0483 0.1394 0.0140 (  3092 PWs)   bands (ev):

   -36.7293 -36.7293 -36.5864 -36.5864 -36.4594 -36.4594 -36.3349 -36.3349
   -36.1550 -36.1550 -35.9534 -35.9534 -35.8502 -35.8502 -35.7115 -35.7115
   -35.5899 -35.5899 -35.4493 -35.4493 -35.3227 -35.3227 -35.2671 -35.2671
   -35.1419 -35.1419 -35.0570 -35.0570 -34.8880 -34.8880 -15.1871 -15.1871
   -15.1635 -15.1635 -15.1469 -15.1469 -15.1197 -15.1197 -12.3464 -12.3464
   -12.3289 -12.3289 -12.3178 -12.3178 -12.3013 -12.3013 -12.2897 -12.2897
   -12.2680 -12.2680  -4.3161  -4.3161  -4.0585  -4.0585  -3.9578  -3.9578
    -1.3674  -1.3674  -1.1428  -1.1428   4.2204   4.2204   5.0024   5.0024
     5.1652   5.1652   5.5924   5.5924   6.1675   6.1675   6.6258   6.6258
     7.6734   7.6734   8.1046   8.1046   8.4690   8.4690  10.4340  10.4340
    11.0544  11.0544  11.9311  11.9311  12.8889  12.8889  13.3785  13.3785
    13.9635  13.9635  14.9483  14.9483  16.8107  16.8107

          k = 0.1448 0.0836-0.0210 (  3079 PWs)   bands (ev):

   -36.5277 -36.5277 -36.3922 -36.3922 -36.3349 -36.3349 -36.1481 -36.1481
   -36.0724 -36.0724 -35.8167 -35.8167 -35.6486 -35.6486 -35.5412 -35.5412
   -35.4434 -35.4434 -35.2941 -35.2941 -35.1354 -35.1354 -35.0773 -35.0773
   -34.9687 -34.9687 -34.8827 -34.8827 -34.7111 -34.7111 -15.1640 -15.1640
   -15.1339 -15.1339 -15.1273 -15.1273 -15.1130 -15.1130 -12.3305 -12.3305
   -12.3107 -12.3107 -12.2938 -12.2938 -12.2827 -12.2827 -12.2782 -12.2782
   -12.2603 -12.2603  -4.5741  -4.5741  -4.2855  -4.2855  -3.9809  -3.9809
    -1.2292  -1.2292  -0.8786  -0.8786   4.2649   4.2649   5.1452   5.1452
     5.5368   5.5368   6.1392   6.1392   6.5662   6.5662   7.1732   7.1732
     7.5868   7.5868   7.9570   7.9570   8.3768   8.3768  10.0920  10.0920
    11.2134  11.2134  11.7526  11.7526  12.1570  12.1570  13.2486  13.2486
    13.9796  13.9796  14.1822  14.1822  16.1154  16.1154

          k = 0.0000 0.0000 0.0419 (  3072 PWs)   bands (ev):

   -36.4845 -36.4845 -36.2218 -36.2218 -36.2066 -36.2066 -35.8982 -35.8982
   -35.7916 -35.7916 -35.7724 -35.7724 -35.4707 -35.4707 -35.4677 -35.4677
   -35.2775 -35.2775 -35.1723 -35.1723 -34.9686 -34.9686 -34.9007 -34.9007
   -34.6993 -34.6993 -34.6588 -34.6588 -34.6122 -34.6122 -15.1261 -15.1261
   -15.1231 -15.1231 -15.1220 -15.1220 -15.0913 -15.0913 -12.2933 -12.2933
   -12.2853 -12.2853 -12.2814 -12.2814 -12.2797 -12.2797 -12.2700 -12.2700
   -12.2540 -12.2540  -5.5157  -5.5157  -5.0712  -5.0712  -4.2171  -4.2171
    -0.9352  -0.9352   0.3078   0.3078   6.2872   6.2872   7.0743   7.0743
     7.2193   7.2193   7.4948   7.4948   7.5860   7.5860   7.8078   7.8078
     7.9220   7.9220   8.1303   8.1303   8.6016   8.6016   9.4741   9.4741
    10.2354  10.2354  10.8875  10.8875  11.7940  11.7940  12.1349  12.1349
    12.7098  12.7098  15.9807  15.9807  16.5631  16.5631

          k = 0.0000 0.2230 0.0140 (  3081 PWs)   bands (ev):

   -36.5147 -36.5147 -36.3301 -36.3301 -36.2992 -36.2992 -36.1726 -36.1726
   -35.9676 -35.9676 -35.8136 -35.8136 -35.5916 -35.5916 -35.5077 -35.5077
   -35.4733 -35.4733 -35.3607 -35.3607 -35.1322 -35.1322 -35.1042 -35.1042
   -34.9166 -34.9166 -34.8536 -34.8536 -34.6969 -34.6969 -15.1619 -15.1619
   -15.1504 -15.1504 -15.1154 -15.1154 -15.1044 -15.1044 -12.3233 -12.3233
   -12.3074 -12.3074 -12.3020 -12.3020 -12.2828 -12.2828 -12.2696 -12.2696
   -12.2638 -12.2638  -5.2197  -5.2197  -4.8401  -4.8401  -4.0833  -4.0833
    -0.9461  -0.9461  -0.1445  -0.1445   5.3826   5.3826   6.0873   6.0873
     6.3694   6.3694   6.8320   6.8320   7.1103   7.1103   7.5098   7.5098
     7.8663   7.8663   8.0541   8.0541   8.8817   8.8817   9.6630   9.6630
    10.8929  10.8929  11.4197  11.4197  12.1547  12.1547  12.6321  12.6321
    13.1180  13.1180  15.1868  15.1868  16.4383  16.4383

     the Fermi energy is     9.0383 ev

!    total energy              =   -1022.18948923 Ry
     Harris-Foulkes estimate   =   -1022.18948923 Ry
     estimated scf accuracy    <          2.6E-09 Ry

     The total energy is the sum of the following terms:

     one-electron contribution =    -465.58435609 Ry
     hartree contribution      =     259.42356426 Ry
     xc contribution           =    -223.08269727 Ry
     ewald contribution        =    -592.94600013 Ry
     smearing contrib. (-TS)   =       0.00000000 Ry

     convergence has been achieved in  12 iterations

     Writing output data file bi2se3.save/
 
     init_run     :      2.53s CPU      2.64s WALL (       1 calls)
     electrons    :     93.71s CPU     95.44s WALL (       1 calls)

     Called by init_run:
     wfcinit      :      2.45s CPU      2.50s WALL (       1 calls)
     potinit      :      0.03s CPU      0.04s WALL (       1 calls)
     hinit0       :      0.03s CPU      0.04s WALL (       1 calls)

     Called by electrons:
     c_bands      :     75.27s CPU     76.59s WALL (      12 calls)
     sum_band     :     18.19s CPU     18.43s WALL (      12 calls)
     v_of_rho     :      0.19s CPU      0.19s WALL (      13 calls)
     mix_rho      :      0.05s CPU      0.06s WALL (      12 calls)

     Called by c_bands:
     init_us_2    :      0.14s CPU      0.15s WALL (     475 calls)
     cegterg      :     72.48s CPU     73.69s WALL (     228 calls)

     Called by sum_band:

     Called by *egterg:
     h_psi        :     64.00s CPU     65.00s WALL (     813 calls)
     g_psi        :      0.05s CPU      0.05s WALL (     566 calls)
     cdiaghg      :      7.06s CPU      7.26s WALL (     794 calls)

     Called by h_psi:
     h_psi:pot    :     63.91s CPU     64.91s WALL (     813 calls)
     h_psi:calbec :      1.00s CPU      1.01s WALL (     813 calls)
     vloc_psi     :     61.10s CPU     62.09s WALL (     813 calls)
     add_vuspsi   :      1.80s CPU      1.81s WALL (     813 calls)

     General routines
     calbec       :      1.00s CPU      1.01s WALL (     813 calls)
     fft          :      0.08s CPU      0.09s WALL (     166 calls)
     ffts         :      0.02s CPU      0.02s WALL (      48 calls)
     fftw         :     63.47s CPU     64.46s WALL (  239268 calls)
 
     Parallel routines
     fft_scatt_xy :     11.15s CPU     11.34s WALL (  239482 calls)
     fft_scatt_yz :     12.14s CPU     12.34s WALL (  239482 calls)
 
     PWSCF        :   1m36.78s CPU   1m40.63s WALL

 
   This run was terminated on:  12:11:33   2May2022            

=------------------------------------------------------------------------------=
   JOB DONE.
=------------------------------------------------------------------------------=
